 Entering Gaussian System, Link 0=g16
 Input=pfoa_opti_woodward.com
 Output=pfoa_opti_woodward.log
 Initial command:
 /usr/local/g16/l1.exe "/home/neukomm/stress_test_aimnet/Gau-1993769.inp" -scrdir="/home/neukomm/stress_test_aimnet/"
 Entering Link 1 = /usr/local/g16/l1.exe PID=   1993770.
  
 Copyright (c) 1988-2021, Gaussian, Inc.  All Rights Reserved.
  
 This is part of the Gaussian(R) 16 program.  It is based on
 the Gaussian(R) 09 system (copyright 2009, Gaussian, Inc.),
 the Gaussian(R) 03 system (copyright 2003, Gaussian, Inc.),
 the Gaussian(R) 98 system (copyright 1998, Gaussian, Inc.),
 the Gaussian(R) 94 system (copyright 1995, Gaussian, Inc.),
 the Gaussian 92(TM) system (copyright 1992, Gaussian, Inc.),
 the Gaussian 90(TM) system (copyright 1990, Gaussian, Inc.),
 the Gaussian 88(TM) system (copyright 1988, Gaussian, Inc.),
 the Gaussian 86(TM) system (copyright 1986, Carnegie Mellon
 University), and the Gaussian 82(TM) system (copyright 1983,
 Carnegie Mellon University). Gaussian is a federally registered
 trademark of Gaussian, Inc.
  
 This software contains proprietary and confidential information,
 including trade secrets, belonging to Gaussian, Inc.
  
 This software is provided under written license and may be
 used, copied, transmitted, or stored only in accord with that
 written license.
  
 The following legend is applicable only to US Government
 contracts under FAR:
  
                    RESTRICTED RIGHTS LEGEND
  
 Use, reproduction and disclosure by the US Government is
 subject to restrictions as set forth in subparagraphs (a)
 and (c) of the Commercial Computer Software - Restricted
 Rights clause in FAR 52.227-19.
  
 Gaussian, Inc.
 340 Quinnipiac St., Bldg. 40, Wallingford CT 06492
  
  
 ---------------------------------------------------------------
 Warning -- This program may not be used in any manner that
 competes with the business of Gaussian, Inc. or will provide
 assistance to any competitor of Gaussian, Inc.  The licensee
 of this program is prohibited from giving any competitor of
 Gaussian, Inc. access to this program.  By using this program,
 the user acknowledges that Gaussian, Inc. is engaged in the
 business of creating and licensing software in the field of
 computational chemistry and represents and warrants to the
 licensee that it is not a competitor of Gaussian, Inc. and that
 it will not use this program in any manner prohibited above.
 ---------------------------------------------------------------
  

 Cite this work as:
 Gaussian 16, Revision C.02,
 M. J. Frisch, G. W. Trucks, H. B. Schlegel, G. E. Scuseria, 
 M. A. Robb, J. R. Cheeseman, G. Scalmani, V. Barone, 
 G. A. Petersson, H. Nakatsuji, X. Li, M. Caricato, A. V. Marenich, 
 J. Bloino, B. G. Janesko, R. Gomperts, B. Mennucci, H. P. Hratchian, 
 J. V. Ortiz, A. F. Izmaylov, J. L. Sonnenberg, D. Williams-Young, 
 F. Ding, F. Lipparini, F. Egidi, J. Goings, B. Peng, A. Petrone, 
 T. Henderson, D. Ranasinghe, V. G. Zakrzewski, J. Gao, N. Rega, 
 G. Zheng, W. Liang, M. Hada, M. Ehara, K. Toyota, R. Fukuda, 
 J. Hasegawa, M. Ishida, T. Nakajima, Y. Honda, O. Kitao, H. Nakai, 
 T. Vreven, K. Throssell, J. A. Montgomery, Jr., J. E. Peralta, 
 F. Ogliaro, M. J. Bearpark, J. J. Heyd, E. N. Brothers, K. N. Kudin, 
 V. N. Staroverov, T. A. Keith, R. Kobayashi, J. Normand, 
 K. Raghavachari, A. P. Rendell, J. C. Burant, S. S. Iyengar, 
 J. Tomasi, M. Cossi, J. M. Millam, M. Klene, C. Adamo, R. Cammi, 
 J. W. Ochterski, R. L. Martin, K. Morokuma, O. Farkas, 
 J. B. Foresman, and D. J. Fox, Gaussian, Inc., Wallingford CT, 2019.
 
 ******************************************
 Gaussian 16:  ES64L-G16RevC.02  7-Dec-2021
                25-Jun-2024 
 ******************************************
 %mem=8000MB
 %nprocshared=64
 Will use up to   64 processors via shared memory.
 -------------------------------------
 # wB97XD/6-31G(d) Opt(NoMicro) NoSymm
 -------------------------------------
 1/18=20,19=15,26=3,38=1/1,3;
 2/9=110,12=2,15=1,17=6,18=5,40=1/2;
 3/5=1,6=6,7=1,11=2,25=1,30=1,71=1,74=-58/1,2,3;
 4//1;
 5/5=2,38=5/2;
 6/7=2,8=2,9=2,10=2,28=1/1;
 7/30=1/1,2,3,16;
 1/18=20,19=15,26=3/3(2);
 2/9=110,15=1/2;
 99//99;
 2/9=110,15=1/2;
 3/5=1,6=6,7=1,11=2,25=1,30=1,71=1,74=-58/1,2,3;
 4/5=5,16=3,69=1/1;
 5/5=2,38=5/2;
 7/30=1/1,2,3,16;
 1/18=20,19=15,26=3/3(-5);
 2/9=110,15=1/2;
 6/7=2,8=2,9=2,10=2,19=2,28=1/1;
 99/9=1/99;
 ----
 PFOA
 ----
 Symbolic Z-matrix:
 Charge =  0 Multiplicity = 1
 C                    -1.19427  -0.28689  -0.70001 
 O                    -2.12901  -0.80692  -1.29553 
 C                     0.2507   -0.75233  -0.76627 
 C                     0.73635  -0.65516  -2.20048 
 C                     2.20276  -1.01577  -2.39173 
 C                     2.63708  -2.44211  -2.07186 
 C                     1.90053  -3.59092  -2.75485 
 C                     2.01828  -3.60421  -4.25875 
 C                     1.31154  -4.82404  -4.84867 
 F                     0.66616  -5.58041  -3.93569 
 F                     0.38828  -4.45294  -5.77192 
 F                     2.18299  -5.63974  -5.49338 
 F                     1.47876  -2.46421  -4.77363 
 F                     3.32938  -3.58377  -4.6297 
 F                     2.39905  -4.76509  -2.26131 
 F                     0.59396  -3.56685  -2.37873 
 F                     3.97368  -2.55737  -2.34454 
 F                     2.55634  -2.61673  -0.71655 
 F                     2.55646  -0.73797  -3.68389 
 F                     2.96319  -0.15314  -1.64403 
 F                    -0.01855  -1.41961  -3.03351 
 F                     0.55574   0.63502  -2.62793 
 F                     1.02542   0.02613   0.05236 
 F                     0.37662  -2.02007  -0.29329 
 O                    -1.38839   0.76798   0.13805 
 H                    -0.568     1.05463   0.59668 
 

 GradGradGradGradGradGradGradGradGradGradGradGradGradGradGradGradGradGrad
 Berny optimization.
 Initialization pass.
                           ----------------------------
                           !    Initial Parameters    !
                           ! (Angstroms and Degrees)  !
 --------------------------                            --------------------------
 ! Name  Definition              Value          Derivative Info.                !
 --------------------------------------------------------------------------------
 ! R1    R(1,2)                  1.2243         estimate D2E/DX2                !
 ! R2    R(1,3)                  1.5195         estimate D2E/DX2                !
 ! R3    R(1,25)                 1.3612         estimate D2E/DX2                !
 ! R4    R(3,4)                  1.5173         estimate D2E/DX2                !
 ! R5    R(3,23)                 1.3698         estimate D2E/DX2                !
 ! R6    R(3,24)                 1.3589         estimate D2E/DX2                !
 ! R7    R(4,5)                  1.5222         estimate D2E/DX2                !
 ! R8    R(4,21)                 1.3595         estimate D2E/DX2                !
 ! R9    R(4,22)                 1.3711         estimate D2E/DX2                !
 ! R10   R(5,6)                  1.5249         estimate D2E/DX2                !
 ! R11   R(5,19)                 1.3682         estimate D2E/DX2                !
 ! R12   R(5,20)                 1.3717         estimate D2E/DX2                !
 ! R13   R(6,7)                  1.526          estimate D2E/DX2                !
 ! R14   R(6,17)                 1.369          estimate D2E/DX2                !
 ! R15   R(6,18)                 1.3689         estimate D2E/DX2                !
 ! R16   R(7,8)                  1.5086         estimate D2E/DX2                !
 ! R17   R(7,15)                 1.3678         estimate D2E/DX2                !
 ! R18   R(7,16)                 1.3598         estimate D2E/DX2                !
 ! R19   R(8,9)                  1.5282         estimate D2E/DX2                !
 ! R20   R(8,13)                 1.3623         estimate D2E/DX2                !
 ! R21   R(8,14)                 1.3627         estimate D2E/DX2                !
 ! R22   R(9,10)                 1.3499         estimate D2E/DX2                !
 ! R23   R(9,11)                 1.3574         estimate D2E/DX2                !
 ! R24   R(9,12)                 1.3566         estimate D2E/DX2                !
 ! R25   R(25,26)                0.9826         estimate D2E/DX2                !
 ! A1    A(2,1,3)              125.0807         estimate D2E/DX2                !
 ! A2    A(2,1,25)             121.3183         estimate D2E/DX2                !
 ! A3    A(3,1,25)             113.5683         estimate D2E/DX2                !
 ! A4    A(1,3,4)              109.0242         estimate D2E/DX2                !
 ! A5    A(1,3,23)             109.7361         estimate D2E/DX2                !
 ! A6    A(1,3,24)             111.0195         estimate D2E/DX2                !
 ! A7    A(4,3,23)             110.333          estimate D2E/DX2                !
 ! A8    A(4,3,24)             111.0431         estimate D2E/DX2                !
 ! A9    A(23,3,24)            105.6495         estimate D2E/DX2                !
 ! A10   A(3,4,5)              114.3267         estimate D2E/DX2                !
 ! A11   A(3,4,21)             111.4353         estimate D2E/DX2                !
 ! A12   A(3,4,22)             108.2269         estimate D2E/DX2                !
 ! A13   A(5,4,21)             108.95           estimate D2E/DX2                !
 ! A14   A(5,4,22)             108.0989         estimate D2E/DX2                !
 ! A15   A(21,4,22)            105.3638         estimate D2E/DX2                !
 ! A16   A(4,5,6)              118.0095         estimate D2E/DX2                !
 ! A17   A(4,5,19)             108.6392         estimate D2E/DX2                !
 ! A18   A(4,5,20)             108.4577         estimate D2E/DX2                !
 ! A19   A(6,5,19)             108.324          estimate D2E/DX2                !
 ! A20   A(6,5,20)             108.4211         estimate D2E/DX2                !
 ! A21   A(19,5,20)            104.1112         estimate D2E/DX2                !
 ! A22   A(5,6,7)              118.2159         estimate D2E/DX2                !
 ! A23   A(5,6,17)             108.3635         estimate D2E/DX2                !
 ! A24   A(5,6,18)             108.0711         estimate D2E/DX2                !
 ! A25   A(7,6,17)             108.585          estimate D2E/DX2                !
 ! A26   A(7,6,18)             108.5796         estimate D2E/DX2                !
 ! A27   A(17,6,18)            104.1258         estimate D2E/DX2                !
 ! A28   A(6,7,8)              114.528          estimate D2E/DX2                !
 ! A29   A(6,7,15)             107.9896         estimate D2E/DX2                !
 ! A30   A(6,7,16)             109.0646         estimate D2E/DX2                !
 ! A31   A(8,7,15)             108.8874         estimate D2E/DX2                !
 ! A32   A(8,7,16)             110.5417         estimate D2E/DX2                !
 ! A33   A(15,7,16)            105.402          estimate D2E/DX2                !
 ! A34   A(7,8,9)              110.8399         estimate D2E/DX2                !
 ! A35   A(7,8,13)             109.7857         estimate D2E/DX2                !
 ! A36   A(7,8,14)             110.2635         estimate D2E/DX2                !
 ! A37   A(9,8,13)             109.8106         estimate D2E/DX2                !
 ! A38   A(9,8,14)             110.5995         estimate D2E/DX2                !
 ! A39   A(13,8,14)            105.4029         estimate D2E/DX2                !
 ! A40   A(8,9,10)             114.0339         estimate D2E/DX2                !
 ! A41   A(8,9,11)             111.0317         estimate D2E/DX2                !
 ! A42   A(8,9,12)             111.4884         estimate D2E/DX2                !
 ! A43   A(10,9,11)            106.7396         estimate D2E/DX2                !
 ! A44   A(10,9,12)            106.9555         estimate D2E/DX2                !
 ! A45   A(11,9,12)            106.1448         estimate D2E/DX2                !
 ! A46   A(1,25,26)            113.227          estimate D2E/DX2                !
 ! D1    D(2,1,3,4)             60.9593         estimate D2E/DX2                !
 ! D2    D(2,1,3,23)          -178.0973         estimate D2E/DX2                !
 ! D3    D(2,1,3,24)           -61.6822         estimate D2E/DX2                !
 ! D4    D(25,1,3,4)          -121.1048         estimate D2E/DX2                !
 ! D5    D(25,1,3,23)           -0.1614         estimate D2E/DX2                !
 ! D6    D(25,1,3,24)          116.2537         estimate D2E/DX2                !
 ! D7    D(2,1,25,26)          176.2979         estimate D2E/DX2                !
 ! D8    D(3,1,25,26)           -1.7249         estimate D2E/DX2                !
 ! D9    D(1,3,4,5)            176.5388         estimate D2E/DX2                !
 ! D10   D(1,3,4,21)           -59.3807         estimate D2E/DX2                !
 ! D11   D(1,3,4,22)            56.0208         estimate D2E/DX2                !
 ! D12   D(23,3,4,5)            55.9611         estimate D2E/DX2                !
 ! D13   D(23,3,4,21)         -179.9584         estimate D2E/DX2                !
 ! D14   D(23,3,4,22)          -64.5569         estimate D2E/DX2                !
 ! D15   D(24,3,4,5)           -60.8339         estimate D2E/DX2                !
 ! D16   D(24,3,4,21)           63.2466         estimate D2E/DX2                !
 ! D17   D(24,3,4,22)          178.6481         estimate D2E/DX2                !
 ! D18   D(3,4,5,6)             63.38           estimate D2E/DX2                !
 ! D19   D(3,4,5,19)          -172.8936         estimate D2E/DX2                !
 ! D20   D(3,4,5,20)           -60.3222         estimate D2E/DX2                !
 ! D21   D(21,4,5,6)           -62.0188         estimate D2E/DX2                !
 ! D22   D(21,4,5,19)           61.7076         estimate D2E/DX2                !
 ! D23   D(21,4,5,20)          174.2791         estimate D2E/DX2                !
 ! D24   D(22,4,5,6)          -176.0308         estimate D2E/DX2                !
 ! D25   D(22,4,5,19)          -52.3044         estimate D2E/DX2                !
 ! D26   D(22,4,5,20)           60.267          estimate D2E/DX2                !
 ! D27   D(4,5,6,7)             54.4393         estimate D2E/DX2                !
 ! D28   D(4,5,6,17)           178.44           estimate D2E/DX2                !
 ! D29   D(4,5,6,18)           -69.3005         estimate D2E/DX2                !
 ! D30   D(19,5,6,7)           -69.4445         estimate D2E/DX2                !
 ! D31   D(19,5,6,17)           54.5563         estimate D2E/DX2                !
 ! D32   D(19,5,6,18)          166.8157         estimate D2E/DX2                !
 ! D33   D(20,5,6,7)           178.1597         estimate D2E/DX2                !
 ! D34   D(20,5,6,17)          -57.8396         estimate D2E/DX2                !
 ! D35   D(20,5,6,18)           54.4199         estimate D2E/DX2                !
 ! D36   D(5,6,7,8)             62.1163         estimate D2E/DX2                !
 ! D37   D(5,6,7,15)          -176.3982         estimate D2E/DX2                !
 ! D38   D(5,6,7,16)           -62.3399         estimate D2E/DX2                !
 ! D39   D(17,6,7,8)           -61.7745         estimate D2E/DX2                !
 ! D40   D(17,6,7,15)           59.711          estimate D2E/DX2                !
 ! D41   D(17,6,7,16)          173.7693         estimate D2E/DX2                !
 ! D42   D(18,6,7,8)          -174.3973         estimate D2E/DX2                !
 ! D43   D(18,6,7,15)          -52.9118         estimate D2E/DX2                !
 ! D44   D(18,6,7,16)           61.1465         estimate D2E/DX2                !
 ! D45   D(6,7,8,9)            177.1426         estimate D2E/DX2                !
 ! D46   D(6,7,8,13)           -61.3688         estimate D2E/DX2                !
 ! D47   D(6,7,8,14)            54.334          estimate D2E/DX2                !
 ! D48   D(15,7,8,9)            56.1507         estimate D2E/DX2                !
 ! D49   D(15,7,8,13)          177.6392         estimate D2E/DX2                !
 ! D50   D(15,7,8,14)          -66.658          estimate D2E/DX2                !
 ! D51   D(16,7,8,9)           -59.1879         estimate D2E/DX2                !
 ! D52   D(16,7,8,13)           62.3007         estimate D2E/DX2                !
 ! D53   D(16,7,8,14)          178.0035         estimate D2E/DX2                !
 ! D54   D(7,8,9,10)             3.9444         estimate D2E/DX2                !
 ! D55   D(7,8,9,11)           124.5639         estimate D2E/DX2                !
 ! D56   D(7,8,9,12)          -117.3021         estimate D2E/DX2                !
 ! D57   D(13,8,9,10)         -117.5295         estimate D2E/DX2                !
 ! D58   D(13,8,9,11)            3.0899         estimate D2E/DX2                !
 ! D59   D(13,8,9,12)          121.2239         estimate D2E/DX2                !
 ! D60   D(14,8,9,10)          126.5581         estimate D2E/DX2                !
 ! D61   D(14,8,9,11)         -112.8224         estimate D2E/DX2                !
 ! D62   D(14,8,9,12)            5.3116         estimate D2E/DX2                !
 --------------------------------------------------------------------------------
 Trust Radius=3.00D-01 FncErr=1.00D-07 GrdErr=1.00D-06 EigMax=2.50D+02 EigMin=1.00D-04
 Number of steps in this run=    143 maximum allowed number of steps=    156.
 GradGradGradGradGradGradGradGradGradGradGradGradGradGradGradGradGradGrad

                          Input orientation:                          
 ---------------------------------------------------------------------
 Center     Atomic      Atomic             Coordinates (Angstroms)
 Number     Number       Type             X           Y           Z
 ---------------------------------------------------------------------
      1          6           0       -1.194270   -0.286890   -0.700010
      2          8           0       -2.129010   -0.806920   -1.295530
      3          6           0        0.250700   -0.752330   -0.766270
      4          6           0        0.736350   -0.655160   -2.200480
      5          6           0        2.202760   -1.015770   -2.391730
      6          6           0        2.637080   -2.442110   -2.071860
      7          6           0        1.900530   -3.590920   -2.754850
      8          6           0        2.018280   -3.604210   -4.258750
      9          6           0        1.311540   -4.824040   -4.848670
     10          9           0        0.666160   -5.580410   -3.935690
     11          9           0        0.388280   -4.452940   -5.771920
     12          9           0        2.182990   -5.639740   -5.493380
     13          9           0        1.478760   -2.464210   -4.773630
     14          9           0        3.329380   -3.583770   -4.629700
     15          9           0        2.399050   -4.765090   -2.261310
     16          9           0        0.593960   -3.566850   -2.378730
     17          9           0        3.973680   -2.557370   -2.344540
     18          9           0        2.556340   -2.616730   -0.716550
     19          9           0        2.556460   -0.737970   -3.683890
     20          9           0        2.963190   -0.153140   -1.644030
     21          9           0       -0.018550   -1.419610   -3.033510
     22          9           0        0.555740    0.635020   -2.627930
     23          9           0        1.025420    0.026130    0.052360
     24          9           0        0.376620   -2.020070   -0.293290
     25          8           0       -1.388390    0.767980    0.138050
     26          1           0       -0.568000    1.054630    0.596680
 ---------------------------------------------------------------------
                    Distance matrix (angstroms):
                    1          2          3          4          5
     1  C    0.000000
     2  O    1.224261   0.000000
     3  C    1.519527   2.438466   0.000000
     4  C    2.472716   3.008696   1.517319   0.000000
     5  C    3.864323   4.473198   2.553832   1.522161   0.000000
     6  C    4.605018   5.098250   3.202301   2.611993   1.524925
     7  C    4.971596   5.110525   3.838487   3.206451   2.618128
     8  C    5.830070   5.814251   4.843034   3.817947   3.196845
     9  C    6.638990   6.371769   5.862610   4.972254   4.618847
    10  F    6.477050   6.129407   5.790353   5.222448   5.057755
    11  F    6.751645   6.298276   6.226554   5.224889   5.150938
    12  F    7.939476   7.718254   7.068670   6.146706   5.567919
    13  F    5.336684   5.278238   4.527427   3.231863   2.880209
    14  F    6.839246   6.972920   5.693981   4.604527   3.587814
    15  F    5.950116   6.091237   4.790908   4.433937   3.756719
    16  F    4.095608   4.025556   3.261806   2.920614   3.016026
    17  F    5.879393   6.434852   4.428282   3.757587   2.348386
    18  F    4.415371   5.056000   2.965541   3.059766   2.343997
    19  F    4.814041   5.259529   3.718769   2.349503   1.368194
    20  F    4.265388   5.145812   2.913262   2.349570   1.371656
    21  F    2.847911   2.801786   2.378684   1.359484   2.347166
    22  F    2.762124   3.326013   2.341702   1.371094   2.343837
    23  F    2.364543   3.530044   1.369798   2.371288   2.906073
    24  F    2.374243   2.958783   1.358945   2.372711   2.957508
    25  O    1.361168   2.254768   2.411587   3.465338   4.741087
    26  H    1.968069   3.079380   2.406867   3.528288   4.571024
                    6          7          8          9         10
     6  C    0.000000
     7  C    1.526023   0.000000
     8  C    2.552622   1.508561   0.000000
     9  C    3.891185   2.500315   1.528225   0.000000
    10  F    4.148170   2.622236   2.416188   1.349868   0.000000
    11  F    4.773990   3.483201   2.380531   1.357393   2.172590
    12  F    4.705086   3.431762   2.386383   1.356629   2.175015
    13  F    2.939686   2.350072   1.362271   2.366937   3.327636
    14  F    2.885344   2.357271   1.362720   2.378633   3.400141
    15  F    2.342816   1.367764   2.341451   2.807238   2.543856
    16  F    2.352350   1.359842   2.358932   2.862875   2.546323
    17  F    1.368992   2.352558   2.929789   4.300634   4.755020
    18  F    1.368896   2.352403   3.716424   4.847284   4.766450
    19  F    2.347176   3.071267   2.972446   4.427472   5.204408
    20  F    2.351334   3.765833   4.431648   5.900421   6.323236
    21  F    3.003772   2.911204   3.228369   4.080942   4.312194
    22  F    3.756317   4.436568   4.771757   5.941738   6.352480
    23  F    3.633451   4.661469   5.722832   6.901167   6.889623
    24  F    2.907079   3.293805   4.574868   5.430268   5.101660
    25  O    5.602927   6.179472   7.074835   7.964150   7.817838
    26  H    5.442503   6.237590   7.208941   8.230630   8.129532
                   11         12         13         14         15
    11  F    0.000000
    12  F    2.169577   0.000000
    13  F    2.478059   3.331362   0.000000
    14  F    3.272643   2.507422   2.167700   0.000000
    15  F    4.057711   3.355290   3.528843   2.805406   0.000000
    16  F    3.513004   4.064841   2.781049   3.542552   2.169773
    17  F    5.309916   4.756340   3.483358   2.586615   2.713008
    18  F    5.799045   5.665341   4.200517   4.104327   2.650750
    19  F    4.781409   5.238424   2.308436   3.096860   4.273898
    20  F    6.492913   6.747517   4.164009   4.562625   4.687150
    21  F    4.106762   5.357913   2.522131   4.294188   4.199205
    22  F    5.983315   7.087409   3.880879   5.431238   5.717813
    23  F    7.374975   8.012321   5.449540   6.345179   5.495063
    24  F    5.994529   6.588317   4.635237   5.474340   3.936808
    25  O    8.083459   9.248061   6.541575   7.995406   7.121551
    26  H    8.473893   9.458931   6.738820   8.001211   7.130262
                   16         17         18         19         20
    16  F    0.000000
    17  F    3.527425   0.000000
    18  F    2.741625   2.159335   0.000000
    19  F    3.682039   2.666943   3.512100   0.000000
    20  F    4.219769   2.700394   2.663648   2.160668   0.000000
    21  F    2.326917   4.207978   3.664895   2.741953   3.524964
    22  F    4.209427   4.685507   4.269620   2.646325   2.717549
    23  F    4.359571   4.594762   3.149547   4.109440   2.581633
    24  F    2.605537   4.175543   2.299202   4.229852   3.464141
    25  O    5.390236   6.780339   5.267589   5.695345   4.791714
    26  H    5.617944   6.505703   4.996495   5.594546   4.353021
                   21         22         23         24         25
    21  F    0.000000
    22  F    2.171591   0.000000
    23  F    3.564075   2.788423   0.000000
    24  F    2.832934   3.540075   2.174247   0.000000
    25  O    4.089108   3.383484   2.526690   3.327843   0.000000
    26  H    4.427419   3.440490   1.973090   3.337384   0.982624
                   26
    26  H    0.000000
 Symmetry turned off by external request.
 Stoichiometry    C8HF15O2
 Framework group  C1[X(C8HF15O2)]
 Deg. of freedom    72
 Full point group                 C1      NOp   1
 Rotational constants (GHZ):           0.4163602           0.1715160           0.1571345
 Standard basis: 6-31G(d) (6D, 7F)
   377 basis functions,   704 primitive gaussians,   377 cartesian basis functions
   100 alpha electrons      100 beta electrons
       nuclear repulsion energy      3065.8147594701 Hartrees.
 NAtoms=   26 NActive=   26 NUniq=   26 SFac= 1.00D+00 NAtFMM=   60 NAOKFM=F Big=F
 Integral buffers will be    131072 words long.
 Raffenetti 2 integral format.
 Two-electron integral symmetry is turned off.
 Nuclear repulsion after empirical dispersion term =     3065.7922010295 Hartrees.
 One-electron integrals computed using PRISM.
 NBasis=   377 RedAO= T EigKep=  8.46D-04  NBF=   377
 NBsUse=   377 1.00D-06 EigRej= -1.00D+00 NBFU=   377
 ExpMin= 1.61D-01 ExpMax= 7.00D+03 ExpMxC= 1.05D+03 IAcc=3 IRadAn=         5 AccDes= 0.00D+00
 Harris functional with IExCor= 4639 and IRadAn=       5 diagonalized for initial guess.
 HarFok:  IExCor= 4639 AccDes= 0.00D+00 IRadAn=         5 IDoV= 1 UseB2=F ITyADJ=14
 ICtDFT=  3500011 ScaDFX=  1.000000  1.000000  1.000000  1.000000
 FoFCou: FMM=F IPFlag=           0 FMFlag=      100000 FMFlg1=           0
         NFxFlg=           0 DoJE=T BraDBF=F KetDBF=T FulRan=T
         wScrn=  0.000000 ICntrl=       500 IOpCl=  0 I1Cent=   200000004 NGrid=           0
         NMat0=    1 NMatS0=      1 NMatT0=    0 NMatD0=    1 NMtDS0=    0 NMtDT0=    0
 Symmetry not used in FoFCou.
 Requested convergence on RMS density matrix=1.00D-08 within 128 cycles.
 Requested convergence on MAX density matrix=1.00D-06.
 Requested convergence on             energy=1.00D-06.
 No special actions if energy rises.
 Integral accuracy reduced to 1.0D-05 until final iterations.
 Initial convergence to 1.0D-05 achieved.  Increase integral accuracy.
 SCF Done:  E(RwB97XD) =  -1952.91374138     A.U. after   15 cycles
            NFock= 15  Conv=0.54D-08     -V/T= 2.0069

 **********************************************************************

            Population analysis using the SCF Density.

 **********************************************************************

 Alpha  occ. eigenvalues --  -24.90937 -24.89642 -24.89621 -24.89597 -24.89440
 Alpha  occ. eigenvalues --  -24.89428 -24.89348 -24.89298 -24.89243 -24.89043
 Alpha  occ. eigenvalues --  -24.88949 -24.88934 -24.88843 -24.88584 -24.88459
 Alpha  occ. eigenvalues --  -19.35849 -19.30683 -10.59289 -10.54202 -10.54160
 Alpha  occ. eigenvalues --  -10.54100 -10.54046 -10.54029 -10.53952 -10.48532
 Alpha  occ. eigenvalues --   -1.44867  -1.43898  -1.42683  -1.41836  -1.41328
 Alpha  occ. eigenvalues --   -1.41021  -1.39514  -1.36656  -1.36040  -1.35331
 Alpha  occ. eigenvalues --   -1.35260  -1.35150  -1.34710  -1.34350  -1.33999
 Alpha  occ. eigenvalues --   -1.23476  -1.15408  -0.98641  -0.95991  -0.92647
 Alpha  occ. eigenvalues --   -0.88533  -0.83858  -0.80273  -0.77631  -0.76034
 Alpha  occ. eigenvalues --   -0.74679  -0.74655  -0.73710  -0.72851  -0.72554
 Alpha  occ. eigenvalues --   -0.71852  -0.71490  -0.70697  -0.70394  -0.69503
 Alpha  occ. eigenvalues --   -0.68978  -0.67386  -0.66916  -0.66243  -0.65987
 Alpha  occ. eigenvalues --   -0.61268  -0.60545  -0.60132  -0.59730  -0.59083
 Alpha  occ. eigenvalues --   -0.58878  -0.58393  -0.58115  -0.57463  -0.57300
 Alpha  occ. eigenvalues --   -0.56886  -0.56266  -0.55929  -0.55751  -0.55581
 Alpha  occ. eigenvalues --   -0.55295  -0.55203  -0.54969  -0.54623  -0.54318
 Alpha  occ. eigenvalues --   -0.53929  -0.53324  -0.53188  -0.52836  -0.52541
 Alpha  occ. eigenvalues --   -0.51984  -0.51693  -0.51419  -0.51297  -0.50600
 Alpha  occ. eigenvalues --   -0.49114  -0.47362  -0.45597  -0.43445  -0.39809
 Alpha virt. eigenvalues --    0.01333   0.05591   0.06663   0.07992   0.12003
 Alpha virt. eigenvalues --    0.12674   0.14525   0.16642   0.18705   0.21022
 Alpha virt. eigenvalues --    0.23332   0.25151   0.26373   0.26707   0.27523
 Alpha virt. eigenvalues --    0.28623   0.29230   0.29847   0.31375   0.32601
 Alpha virt. eigenvalues --    0.33511   0.35266   0.36734   0.37693   0.40457
 Alpha virt. eigenvalues --    0.43869   0.48855   0.51991   0.53600   0.54039
 Alpha virt. eigenvalues --    0.54478   0.56732   0.57792   0.57900   0.59796
 Alpha virt. eigenvalues --    0.61828   0.62328   0.62730   0.63725   0.65326
 Alpha virt. eigenvalues --    0.66326   0.68833   0.71374   0.71740   0.72645
 Alpha virt. eigenvalues --    0.74545   0.74657   0.75917   0.78510   0.80934
 Alpha virt. eigenvalues --    0.82662   0.84978   0.89574   0.93243   0.95080
 Alpha virt. eigenvalues --    0.95334   0.98107   0.99286   1.02206   1.02527
 Alpha virt. eigenvalues --    1.05133   1.06741   1.07939   1.08904   1.11061
 Alpha virt. eigenvalues --    1.11396   1.12495   1.13180   1.14336   1.15936
 Alpha virt. eigenvalues --    1.16092   1.16602   1.18399   1.20266   1.21298
 Alpha virt. eigenvalues --    1.22324   1.23575   1.25206   1.25834   1.26965
 Alpha virt. eigenvalues --    1.27819   1.29086   1.29904   1.30265   1.31521
 Alpha virt. eigenvalues --    1.33414   1.34349   1.34620   1.35351   1.36236
 Alpha virt. eigenvalues --    1.36472   1.37572   1.38235   1.39486   1.39671
 Alpha virt. eigenvalues --    1.40702   1.41169   1.41650   1.42195   1.42739
 Alpha virt. eigenvalues --    1.43116   1.43970   1.44393   1.44587   1.46559
 Alpha virt. eigenvalues --    1.46996   1.47363   1.48083   1.48660   1.50762
 Alpha virt. eigenvalues --    1.51398   1.54469   1.54835   1.55777   1.56059
 Alpha virt. eigenvalues --    1.57982   1.59097   1.59752   1.60399   1.61680
 Alpha virt. eigenvalues --    1.62814   1.64304   1.65685   1.66807   1.68151
 Alpha virt. eigenvalues --    1.69873   1.71193   1.72168   1.73274   1.74619
 Alpha virt. eigenvalues --    1.75053   1.75823   1.77322   1.78194   1.79497
 Alpha virt. eigenvalues --    1.79696   1.80232   1.81581   1.82034   1.82341
 Alpha virt. eigenvalues --    1.83047   1.84742   1.85152   1.85701   1.86392
 Alpha virt. eigenvalues --    1.87005   1.87357   1.88544   1.89433   1.90204
 Alpha virt. eigenvalues --    1.90729   1.91127   1.91692   1.92738   1.93294
 Alpha virt. eigenvalues --    1.95540   1.95773   1.98344   1.98920   1.99411
 Alpha virt. eigenvalues --    2.00218   2.01343   2.02366   2.04018   2.04551
 Alpha virt. eigenvalues --    2.04962   2.05481   2.06325   2.07240   2.07657
 Alpha virt. eigenvalues --    2.08529   2.09050   2.09934   2.10348   2.11421
 Alpha virt. eigenvalues --    2.11568   2.12307   2.12962   2.13290   2.14340
 Alpha virt. eigenvalues --    2.15288   2.16360   2.17071   2.18848   2.19761
 Alpha virt. eigenvalues --    2.20732   2.21405   2.23817   2.24732   2.25778
 Alpha virt. eigenvalues --    2.27562   2.28428   2.31373   2.31768   2.32798
 Alpha virt. eigenvalues --    2.34712   2.36950   2.39184   2.39412   2.40682
 Alpha virt. eigenvalues --    2.43044   2.43564   2.45956   2.46680   2.48777
 Alpha virt. eigenvalues --    2.50961   2.51711   2.54567   2.55906   2.56213
 Alpha virt. eigenvalues --    2.57371   2.61887   2.63585   2.65484   2.66803
 Alpha virt. eigenvalues --    2.67813   2.70636   2.71632   2.77082   2.77649
 Alpha virt. eigenvalues --    2.79278   2.81742   2.83214   2.85058   2.85456
 Alpha virt. eigenvalues --    2.87259   2.87994   2.89981   2.91033   2.92119
 Alpha virt. eigenvalues --    2.92951   2.95131   2.97159   2.98261   3.00938
 Alpha virt. eigenvalues --    3.05391   3.06682   3.08121   3.11990   3.12403
 Alpha virt. eigenvalues --    3.14232   3.15743   3.16883   3.19830   3.21526
 Alpha virt. eigenvalues --    3.23166   3.25372   3.28616   3.31686   3.36024
 Alpha virt. eigenvalues --    3.37724   3.41973   3.91757   4.14439   4.19739
 Alpha virt. eigenvalues --    4.25484   4.30613   4.36903   4.46034   4.54862
 Alpha virt. eigenvalues --    4.63356   4.64563   4.73174   4.81465   4.86125
 Alpha virt. eigenvalues --    5.12627   5.15838   5.25815   5.51779   5.55101
 Alpha virt. eigenvalues --    5.62286   5.81622   6.16177   6.27252   6.39491
 Alpha virt. eigenvalues --    6.74656   7.22548
          Condensed to atoms (all electrons):
               1          2          3          4          5          6
     1  C    4.450327   0.546291   0.245612  -0.046085   0.003551  -0.000243
     2  O    0.546291   8.000157  -0.061884   0.008620   0.000068  -0.000007
     3  C    0.245612  -0.061884   4.838142   0.157571  -0.054111  -0.001687
     4  C   -0.046085   0.008620   0.157571   4.845589   0.204587  -0.060017
     5  C    0.003551   0.000068  -0.054111   0.204587   4.791052   0.167079
     6  C   -0.000243  -0.000007  -0.001687  -0.060017   0.167079   4.754505
     7  C    0.000051   0.000004   0.000668  -0.001371  -0.059982   0.213960
     8  C   -0.000002  -0.000000   0.000090   0.000690  -0.001976  -0.045670
     9  C    0.000000  -0.000000  -0.000001   0.000038  -0.000147   0.003158
    10  F   -0.000000   0.000000  -0.000000   0.000001  -0.000001   0.000326
    11  F   -0.000000   0.000000  -0.000000  -0.000001   0.000001  -0.000041
    12  F   -0.000000   0.000000   0.000000  -0.000000   0.000000  -0.000032
    13  F   -0.000000   0.000000   0.000037  -0.001562   0.011825  -0.003807
    14  F    0.000000  -0.000000  -0.000000   0.000025  -0.001758   0.003319
    15  F   -0.000000   0.000000   0.000003  -0.000010   0.001907  -0.007565
    16  F   -0.000102   0.000002  -0.001058   0.010227  -0.002753  -0.019204
    17  F    0.000000  -0.000000   0.000015   0.001993  -0.012717   0.234021
    18  F    0.000126  -0.000000   0.012496  -0.002061  -0.028610   0.238781
    19  F   -0.000033   0.000000   0.002053  -0.021183   0.238469  -0.026465
    20  F   -0.000016   0.000000   0.005554  -0.032396   0.229351  -0.011844
    21  F   -0.001390  -0.000476  -0.021525   0.225887  -0.021311  -0.002524
    22  F    0.013276  -0.001028  -0.034897   0.221321  -0.009731   0.001868
    23  F   -0.025701   0.000806   0.214195  -0.024957   0.002139  -0.001320
    24  F   -0.019795  -0.000856   0.235218  -0.025912  -0.001539   0.010444
    25  O    0.266152  -0.069364  -0.070562  -0.000970  -0.000086   0.000000
    26  H   -0.018689   0.003149  -0.000598   0.000833  -0.000024   0.000002
               7          8          9         10         11         12
     1  C    0.000051  -0.000002   0.000000  -0.000000  -0.000000  -0.000000
     2  O    0.000004  -0.000000  -0.000000   0.000000   0.000000   0.000000
     3  C    0.000668   0.000090  -0.000001  -0.000000  -0.000000   0.000000
     4  C   -0.001371   0.000690   0.000038   0.000001  -0.000001  -0.000000
     5  C   -0.059982  -0.001976  -0.000147  -0.000001   0.000001   0.000000
     6  C    0.213960  -0.045670   0.003158   0.000326  -0.000041  -0.000032
     7  C    4.869555   0.141113  -0.055389   0.023776   0.000117  -0.000341
     8  C    0.141113   4.838166   0.247602  -0.047684  -0.026821  -0.028483
     9  C   -0.055389   0.247602   4.134812   0.294076   0.285639   0.287007
    10  F    0.023776  -0.047684   0.294076   9.059150  -0.037872  -0.037763
    11  F    0.000117  -0.026821   0.285639  -0.037872   9.079764  -0.038960
    12  F   -0.000341  -0.028483   0.287007  -0.037763  -0.038960   9.078152
    13  F   -0.022358   0.227695  -0.022028   0.000288  -0.001059   0.000242
    14  F   -0.026166   0.243667  -0.022744   0.000298   0.000185  -0.000543
    15  F    0.216191  -0.031296   0.009765  -0.003397   0.000005  -0.000139
    16  F    0.211400  -0.026939   0.005490  -0.002825  -0.000062   0.000005
    17  F   -0.032705   0.004904  -0.000017  -0.000000   0.000000   0.000000
    18  F   -0.020639   0.001950  -0.000026  -0.000000   0.000000   0.000000
    19  F   -0.003125   0.012489   0.000084  -0.000000  -0.000000  -0.000000
    20  F    0.002015   0.000013   0.000000   0.000000  -0.000000  -0.000000
    21  F    0.010591  -0.001313  -0.000089  -0.000000   0.000000  -0.000000
    22  F   -0.000004   0.000002  -0.000000   0.000000   0.000000  -0.000000
    23  F    0.000015  -0.000000   0.000000  -0.000000   0.000000   0.000000
    24  F   -0.001523   0.000036   0.000000  -0.000000  -0.000000   0.000000
    25  O   -0.000000   0.000000  -0.000000  -0.000000   0.000000  -0.000000
    26  H   -0.000000   0.000000  -0.000000   0.000000   0.000000  -0.000000
              13         14         15         16         17         18
     1  C   -0.000000   0.000000  -0.000000  -0.000102   0.000000   0.000126
     2  O    0.000000  -0.000000   0.000000   0.000002  -0.000000  -0.000000
     3  C    0.000037  -0.000000   0.000003  -0.001058   0.000015   0.012496
     4  C   -0.001562   0.000025  -0.000010   0.010227   0.001993  -0.002061
     5  C    0.011825  -0.001758   0.001907  -0.002753  -0.012717  -0.028610
     6  C   -0.003807   0.003319  -0.007565  -0.019204   0.234021   0.238781
     7  C   -0.022358  -0.026166   0.216191   0.211400  -0.032705  -0.020639
     8  C    0.227695   0.243667  -0.031296  -0.026939   0.004904   0.001950
     9  C   -0.022028  -0.022744   0.009765   0.005490  -0.000017  -0.000026
    10  F    0.000288   0.000298  -0.003397  -0.002825  -0.000000  -0.000000
    11  F   -0.001059   0.000185   0.000005  -0.000062   0.000000   0.000000
    12  F    0.000242  -0.000543  -0.000139   0.000005   0.000000   0.000000
    13  F    9.126178  -0.037953   0.000342   0.000063  -0.000093   0.000001
    14  F   -0.037953   9.109585  -0.000001   0.000313  -0.000098   0.000001
    15  F    0.000342  -0.000001   9.131907  -0.035947  -0.000539  -0.001019
    16  F    0.000063   0.000313  -0.035947   9.138012   0.000327  -0.000529
    17  F   -0.000093  -0.000098  -0.000539   0.000327   9.122328  -0.038573
    18  F    0.000001   0.000001  -0.001019  -0.000529  -0.038573   9.123553
    19  F   -0.009670  -0.000284  -0.000000   0.000000  -0.000418   0.000349
    20  F    0.000001   0.000000  -0.000001   0.000000  -0.000908  -0.000383
    21  F    0.000625   0.000001   0.000001  -0.007571   0.000000  -0.000003
    22  F   -0.000006   0.000000   0.000000   0.000001  -0.000001   0.000000
    23  F   -0.000000  -0.000000   0.000000   0.000001   0.000000  -0.000289
    24  F   -0.000000  -0.000000  -0.000004   0.001067   0.000000  -0.009807
    25  O    0.000000   0.000000  -0.000000  -0.000000  -0.000000  -0.000000
    26  H    0.000000  -0.000000  -0.000000  -0.000000   0.000000   0.000000
              19         20         21         22         23         24
     1  C   -0.000033  -0.000016  -0.001390   0.013276  -0.025701  -0.019795
     2  O    0.000000   0.000000  -0.000476  -0.001028   0.000806  -0.000856
     3  C    0.002053   0.005554  -0.021525  -0.034897   0.214195   0.235218
     4  C   -0.021183  -0.032396   0.225887   0.221321  -0.024957  -0.025912
     5  C    0.238469   0.229351  -0.021311  -0.009731   0.002139  -0.001539
     6  C   -0.026465  -0.011844  -0.002524   0.001868  -0.001320   0.010444
     7  C   -0.003125   0.002015   0.010591  -0.000004   0.000015  -0.001523
     8  C    0.012489   0.000013  -0.001313   0.000002  -0.000000   0.000036
     9  C    0.000084   0.000000  -0.000089  -0.000000   0.000000   0.000000
    10  F   -0.000000   0.000000  -0.000000   0.000000  -0.000000  -0.000000
    11  F   -0.000000  -0.000000   0.000000   0.000000   0.000000  -0.000000
    12  F   -0.000000  -0.000000  -0.000000  -0.000000   0.000000   0.000000
    13  F   -0.009670   0.000001   0.000625  -0.000006  -0.000000  -0.000000
    14  F   -0.000284   0.000000   0.000001   0.000000  -0.000000  -0.000000
    15  F   -0.000000  -0.000001   0.000001   0.000000   0.000000  -0.000004
    16  F    0.000000   0.000000  -0.007571   0.000001   0.000001   0.001067
    17  F   -0.000418  -0.000908   0.000000  -0.000001   0.000000   0.000000
    18  F    0.000349  -0.000383  -0.000003   0.000000  -0.000289  -0.009807
    19  F    9.120603  -0.038444  -0.000540  -0.000942  -0.000000   0.000000
    20  F   -0.038444   9.129379   0.000340  -0.000520   0.000010  -0.000128
    21  F   -0.000540   0.000340   9.110886  -0.036430   0.000278   0.000077
    22  F   -0.000942  -0.000520  -0.036430   9.132944   0.000130   0.000327
    23  F   -0.000000   0.000010   0.000278   0.000130   9.152518  -0.037293
    24  F    0.000000  -0.000128   0.000077   0.000327  -0.037293   9.110246
    25  O    0.000000   0.000000   0.000020  -0.000276  -0.007584   0.000384
    26  H    0.000000   0.000006  -0.000003   0.000023   0.021025   0.000319
              25         26
     1  C    0.266152  -0.018689
     2  O   -0.069364   0.003149
     3  C   -0.070562  -0.000598
     4  C   -0.000970   0.000833
     5  C   -0.000086  -0.000024
     6  C    0.000000   0.000002
     7  C   -0.000000  -0.000000
     8  C    0.000000   0.000000
     9  C   -0.000000  -0.000000
    10  F   -0.000000   0.000000
    11  F    0.000000   0.000000
    12  F   -0.000000  -0.000000
    13  F    0.000000   0.000000
    14  F    0.000000  -0.000000
    15  F   -0.000000  -0.000000
    16  F   -0.000000  -0.000000
    17  F   -0.000000   0.000000
    18  F   -0.000000   0.000000
    19  F    0.000000   0.000000
    20  F    0.000000   0.000006
    21  F    0.000020  -0.000003
    22  F   -0.000276   0.000023
    23  F   -0.007584   0.021025
    24  F    0.000384   0.000319
    25  O    8.235714   0.232651
    26  H    0.232651   0.306829
 Mulliken charges:
               1
     1  C    0.586671
     2  O   -0.425483
     3  C    0.534671
     4  C    0.539142
     5  C    0.544716
     6  C    0.552962
     7  C    0.534149
     8  C    0.491768
     9  C    0.832772
    10  F   -0.248372
    11  F   -0.260894
    12  F   -0.259145
    13  F   -0.268758
    14  F   -0.267847
    15  F   -0.280200
    16  F   -0.269916
    17  F   -0.277518
    18  F   -0.275318
    19  F   -0.272943
    20  F   -0.282032
    21  F   -0.255529
    22  F   -0.286057
    23  F   -0.293973
    24  F   -0.261260
    25  O   -0.586081
    26  H    0.454477
 Sum of Mulliken charges =  -0.00000
 Mulliken charges with hydrogens summed into heavy atoms:
               1
     1  C    0.586671
     2  O   -0.425483
     3  C    0.534671
     4  C    0.539142
     5  C    0.544716
     6  C    0.552962
     7  C    0.534149
     8  C    0.491768
     9  C    0.832772
    10  F   -0.248372
    11  F   -0.260894
    12  F   -0.259145
    13  F   -0.268758
    14  F   -0.267847
    15  F   -0.280200
    16  F   -0.269916
    17  F   -0.277518
    18  F   -0.275318
    19  F   -0.272943
    20  F   -0.282032
    21  F   -0.255529
    22  F   -0.286057
    23  F   -0.293973
    24  F   -0.261260
    25  O   -0.131604
 Electronic spatial extent (au):  <R**2>=          16355.6469
 Charge=             -0.0000 electrons
 Dipole moment (field-independent basis, Debye):
    X=              1.8503    Y=              1.2029    Z=              1.6555  Tot=              2.7588
 Quadrupole moment (field-independent basis, Debye-Ang):
   XX=           -139.9030   YY=           -131.4002   ZZ=           -132.0676
   XY=             -0.5098   XZ=             -2.3578   YZ=             -0.4543
 Traceless Quadrupole moment (field-independent basis, Debye-Ang):
   XX=             -5.4461   YY=              3.0567   ZZ=              2.3894
   XY=             -0.5098   XZ=             -2.3578   YZ=             -0.4543
 Octapole moment (field-independent basis, Debye-Ang**2):
  XXX=           -475.3362  YYY=            878.3466  ZZZ=           1012.4453  XYY=           -160.3915
  XXY=            292.9099  XXZ=            344.6756  XZZ=           -158.3274  YZZ=            295.7894
  YYZ=            342.0106  XYZ=              3.5008
 Hexadecapole moment (field-independent basis, Debye-Ang**3):
 XXXX=          -3016.6659 YYYY=          -6749.1729 ZZZZ=          -7460.5417 XXXY=           1486.1379
 XXXZ=           1592.9517 YYYX=           1490.3231 YYYZ=          -3128.4347 ZZZX=           1581.6283
 ZZZY=          -3125.3027 XXYY=          -1617.6192 XXZZ=          -1748.9318 YYZZ=          -2394.7096
 XXYZ=          -1041.6214 YYXZ=            533.9352 ZZXY=            490.6833
 N-N= 3.065792201030D+03 E-N=-1.075977811588D+04  KE= 1.939537189430D+03
 Calling FoFJK, ICntrl=      2127 FMM=F ISym2X=0 I1Cent= 0 IOpClX= 0 NMat=1 NMatS=1 NMatT=0.
 -------------------------------------------------------------------
 Center     Atomic                   Forces (Hartrees/Bohr)
 Number     Number              X              Y              Z
 -------------------------------------------------------------------
      1        6          -0.058585512    0.008381855    0.010047072
      2        8           0.045774025    0.017804756    0.020752305
      3        6           0.002233722   -0.013331216    0.018256879
      4        6          -0.009453597    0.011003060   -0.032317522
      5        6           0.034525851    0.034130353   -0.020214317
      6        6           0.037378307   -0.008359768    0.034082817
      7        6          -0.010945118   -0.022463298    0.031470095
      8        6           0.016083025    0.025626184   -0.023895867
      9        6          -0.025220690   -0.045853323   -0.041136560
     10        9           0.009671396    0.012838412   -0.009220086
     11        9           0.015118019    0.001444391    0.017239030
     12        9          -0.006958118    0.016503066    0.014524793
     13        9          -0.005378863   -0.027368659    0.000862213
     14        9          -0.016470625   -0.009547748    0.007287695
     15        9           0.005108877    0.017466181   -0.008290121
     16        9           0.014127170   -0.003125380   -0.006347266
     17        9          -0.018810738    0.005129086   -0.005672308
     18        9           0.003014176   -0.001320421   -0.018959484
     19        9          -0.004974487   -0.000304388    0.018183324
     20        9          -0.012187453   -0.016747193   -0.001341157
     21        9           0.004709194    0.014790349    0.015283421
     22        9           0.006375449   -0.012612034    0.013414944
     23        9          -0.003647347   -0.000736062   -0.009440462
     24        9          -0.019981216    0.015610343   -0.006245490
     25        8           0.007011220   -0.011404974   -0.008118465
     26        1          -0.008516670   -0.007553573   -0.010205482
 -------------------------------------------------------------------
 Cartesian Forces:  Max     0.058585512 RMS     0.018972662

 GradGradGradGradGradGradGradGradGradGradGradGradGradGradGradGradGradGrad
 Berny optimization.
 FormGI is forming the generalized inverse of G from B-inverse, IUseBI=4.
 Internal  Forces:  Max     0.080297692 RMS     0.018872906
 Search for a local minimum.
 Step number   1 out of a maximum of  143
 All quantities printed in internal units (Hartrees-Bohrs-Radians)
 Mixed Optimization -- RFO/linear search
 Second derivative matrix not updated -- first step.
 ITU=  0
     Eigenvalues ---    0.00393   0.00422   0.00436   0.00473   0.00508
     Eigenvalues ---    0.00537   0.00653   0.00909   0.02205   0.04532
     Eigenvalues ---    0.04578   0.05130   0.05152   0.05647   0.06691
     Eigenvalues ---    0.06851   0.06872   0.07030   0.07037   0.07062
     Eigenvalues ---    0.07876   0.07878   0.08447   0.12623   0.13495
     Eigenvalues ---    0.13557   0.13698   0.14494   0.14535   0.16000
     Eigenvalues ---    0.18777   0.19429   0.19457   0.19463   0.20099
     Eigenvalues ---    0.20128   0.24991   0.25000   0.25000   0.25000
     Eigenvalues ---    0.25000   0.25000   0.25000   0.25000   0.25000
     Eigenvalues ---    0.25000   0.25000   0.29588   0.29794   0.29897
     Eigenvalues ---    0.30159   0.30412   0.30626   0.31496   0.50660
     Eigenvalues ---    0.50767   0.50879   0.51015   0.51171   0.51189
     Eigenvalues ---    0.51325   0.51409   0.52402   0.52491   0.52712
     Eigenvalues ---    0.52979   0.53052   0.53161   0.53478   0.53635
     Eigenvalues ---    0.55049   0.93520
 RFO step:  Lambda=-1.22059915D-01 EMin= 3.92582237D-03
 Linear search not attempted -- first point.
 Maximum step size (   0.300) exceeded in Quadratic search.
    -- Step size scaled by   0.563
 Iteration  1 RMS(Cart)=  0.21462854 RMS(Int)=  0.01111994
 Iteration  2 RMS(Cart)=  0.04462076 RMS(Int)=  0.00054466
 Iteration  3 RMS(Cart)=  0.00071481 RMS(Int)=  0.00047096
 Iteration  4 RMS(Cart)=  0.00000060 RMS(Int)=  0.00047096
 Variable       Old X    -DE/DX   Delta X   Delta X   Delta X     New X
                                 (Linear)    (Quad)   (Total)
    R1        2.31352  -0.05261   0.00000  -0.02801  -0.02801   2.28551
    R2        2.87149   0.01636   0.00000   0.02161   0.02161   2.89310
    R3        2.57223  -0.02576   0.00000  -0.02233  -0.02233   2.54990
    R4        2.86732   0.02509   0.00000   0.03297   0.03297   2.90029
    R5        2.58854  -0.00812   0.00000  -0.00723  -0.00723   2.58131
    R6        2.56803  -0.01859   0.00000  -0.01601  -0.01601   2.55202
    R7        2.87647   0.03946   0.00000   0.05243   0.05243   2.92889
    R8        2.56905  -0.02030   0.00000  -0.01751  -0.01751   2.55155
    R9        2.59099  -0.01689   0.00000  -0.01510  -0.01510   2.57589
   R10        2.88169   0.03959   0.00000   0.05293   0.05293   2.93462
   R11        2.58551  -0.01852   0.00000  -0.01641  -0.01641   2.56910
   R12        2.59205  -0.01802   0.00000  -0.01614  -0.01614   2.57592
   R13        2.88377   0.03615   0.00000   0.04846   0.04846   2.93222
   R14        2.58702  -0.01767   0.00000  -0.01569  -0.01569   2.57133
   R15        2.58684  -0.01878   0.00000  -0.01668  -0.01668   2.57016
   R16        2.85077   0.03342   0.00000   0.04305   0.04305   2.89382
   R17        2.58470  -0.01612   0.00000  -0.01427  -0.01427   2.57043
   R18        2.56973  -0.01539   0.00000  -0.01329  -0.01329   2.55644
   R19        2.88793   0.02263   0.00000   0.03048   0.03048   2.91841
   R20        2.57432  -0.02110   0.00000  -0.01836  -0.01836   2.55596
   R21        2.57517  -0.01798   0.00000  -0.01566  -0.01566   2.55950
   R22        2.55088  -0.01805   0.00000  -0.01511  -0.01511   2.53577
   R23        2.56510  -0.02162   0.00000  -0.01852  -0.01852   2.54658
   R24        2.56366  -0.02130   0.00000  -0.01821  -0.01821   2.54545
   R25        1.85689  -0.01407   0.00000  -0.01256  -0.01256   1.84433
    A1        2.18307  -0.01426   0.00000  -0.02153  -0.02153   2.16154
    A2        2.11740   0.00543   0.00000   0.00827   0.00826   2.12566
    A3        1.98214   0.00888   0.00000   0.01348   0.01348   1.99562
    A4        1.90283   0.00902   0.00000   0.01106   0.01110   1.91393
    A5        1.91526  -0.00092   0.00000  -0.00309  -0.00309   1.91217
    A6        1.93766  -0.01544   0.00000  -0.02875  -0.02880   1.90886
    A7        1.92567  -0.00840   0.00000  -0.01257  -0.01255   1.91313
    A8        1.93807   0.00827   0.00000   0.01710   0.01718   1.95525
    A9        1.84393   0.00700   0.00000   0.01570   0.01564   1.85957
   A10        1.99538   0.05467   0.00000   0.08687   0.08691   2.08228
   A11        1.94491  -0.02234   0.00000  -0.02972  -0.03144   1.91348
   A12        1.88892  -0.01858   0.00000  -0.03616  -0.03546   1.85346
   A13        1.90154  -0.00510   0.00000   0.00465   0.00427   1.90581
   A14        1.88668  -0.02283   0.00000  -0.04035  -0.03922   1.84746
   A15        1.83895   0.01047   0.00000   0.00739   0.00659   1.84554
   A16        2.05965   0.08000   0.00000   0.12616   0.12652   2.18617
   A17        1.89611  -0.02938   0.00000  -0.04140  -0.04239   1.85372
   A18        1.89294  -0.02081   0.00000  -0.03227  -0.03138   1.86156
   A19        1.89061  -0.01745   0.00000  -0.02048  -0.02084   1.86977
   A20        1.89231  -0.03313   0.00000  -0.05367  -0.05328   1.83903
   A21        1.81708   0.01384   0.00000   0.00884   0.00721   1.82430
   A22        2.06326   0.08030   0.00000   0.12661   0.12698   2.19024
   A23        1.89130  -0.03257   0.00000  -0.05177  -0.05144   1.83986
   A24        1.88620  -0.01718   0.00000  -0.02025  -0.02041   1.86578
   A25        1.89517  -0.02107   0.00000  -0.03243  -0.03172   1.86344
   A26        1.89507  -0.03026   0.00000  -0.04380  -0.04474   1.85033
   A27        1.81734   0.01383   0.00000   0.00878   0.00714   1.82448
   A28        1.99889   0.05118   0.00000   0.08031   0.08036   2.07925
   A29        1.88477  -0.02518   0.00000  -0.04603  -0.04524   1.83953
   A30        1.90354  -0.00747   0.00000  -0.00159  -0.00221   1.90133
   A31        1.90044  -0.01520   0.00000  -0.02906  -0.02812   1.87233
   A32        1.92932  -0.01778   0.00000  -0.02067  -0.02186   1.90745
   A33        1.83961   0.01112   0.00000   0.01079   0.01022   1.84984
   A34        1.93452   0.01966   0.00000   0.02762   0.02775   1.96228
   A35        1.91612   0.00420   0.00000   0.01340   0.01367   1.92979
   A36        1.92446  -0.00780   0.00000  -0.01088  -0.01069   1.91377
   A37        1.91656  -0.01756   0.00000  -0.03156  -0.03182   1.88474
   A38        1.93033  -0.00951   0.00000  -0.01926  -0.01932   1.91101
   A39        1.83963   0.01024   0.00000   0.01990   0.01958   1.85921
   A40        1.99027  -0.00291   0.00000  -0.00491  -0.00496   1.98531
   A41        1.93787  -0.00941   0.00000  -0.01381  -0.01388   1.92399
   A42        1.94584  -0.01116   0.00000  -0.01681  -0.01688   1.92896
   A43        1.86296   0.00677   0.00000   0.01009   0.01006   1.87301
   A44        1.86673   0.00728   0.00000   0.01027   0.01021   1.87694
   A45        1.85258   0.01166   0.00000   0.01862   0.01853   1.87111
   A46        1.97618  -0.01085   0.00000  -0.02166  -0.02166   1.95452
    D1        1.06394   0.00325   0.00000   0.00435   0.00432   1.06826
    D2       -3.10838  -0.00200   0.00000  -0.00609  -0.00610  -3.11449
    D3       -1.07656  -0.00313   0.00000  -0.00577  -0.00567  -1.08223
    D4       -2.11368   0.00501   0.00000   0.01163   0.01156  -2.10212
    D5       -0.00282  -0.00024   0.00000   0.00119   0.00114  -0.00168
    D6        2.02901  -0.00136   0.00000   0.00151   0.00157   2.03058
    D7        3.07698   0.00163   0.00000   0.00711   0.00716   3.08414
    D8       -0.03011   0.00040   0.00000   0.00083   0.00078  -0.02933
    D9        3.08118  -0.00881   0.00000  -0.03268  -0.03267   3.04852
   D10       -1.03639   0.00883   0.00000   0.01721   0.01672  -1.01967
   D11        0.97775  -0.00181   0.00000  -0.01161  -0.01121   0.96654
   D12        0.97671  -0.00819   0.00000  -0.02810  -0.02805   0.94866
   D13       -3.14087   0.00945   0.00000   0.02180   0.02134  -3.11953
   D14       -1.12673  -0.00119   0.00000  -0.00702  -0.00659  -1.13332
   D15       -1.06175  -0.01667   0.00000  -0.05010  -0.05003  -1.11178
   D16        1.10386   0.00097   0.00000  -0.00020  -0.00064   1.10322
   D17        3.11800  -0.00967   0.00000  -0.02902  -0.02857   3.08943
   D18        1.10619  -0.00233   0.00000  -0.00320  -0.00230   1.10389
   D19       -3.01756   0.00930   0.00000   0.02903   0.02922  -2.98834
   D20       -1.05282   0.00025   0.00000   0.00233   0.00314  -1.04968
   D21       -1.08243  -0.00925   0.00000  -0.03204  -0.03226  -1.11470
   D22        1.07700   0.00239   0.00000   0.00019  -0.00073   1.07627
   D23        3.04174  -0.00667   0.00000  -0.02651  -0.02682   3.01492
   D24       -3.07232  -0.00703   0.00000  -0.02205  -0.02194  -3.09426
   D25       -0.91288   0.00460   0.00000   0.01017   0.00959  -0.90330
   D26        1.05186  -0.00445   0.00000  -0.01653  -0.01650   1.03536
   D27        0.95014  -0.00321   0.00000  -0.00839  -0.00720   0.94295
   D28        3.11437   0.00082   0.00000  -0.00130  -0.00119   3.11318
   D29       -1.20952  -0.00748   0.00000  -0.02636  -0.02584  -1.23536
   D30       -1.21203  -0.00863   0.00000  -0.02974  -0.02920  -1.24124
   D31        0.95219  -0.00460   0.00000  -0.02265  -0.02320   0.92899
   D32        2.91148  -0.01290   0.00000  -0.04771  -0.04785   2.86364
   D33        3.10947   0.00034   0.00000  -0.00327  -0.00325   3.10622
   D34       -1.00949   0.00437   0.00000   0.00382   0.00276  -1.00673
   D35        0.94981  -0.00394   0.00000  -0.02124  -0.02189   0.92791
   D36        1.08413  -0.00118   0.00000   0.00062   0.00144   1.08558
   D37       -3.07873  -0.00535   0.00000  -0.01739  -0.01738  -3.09611
   D38       -1.08804  -0.00927   0.00000  -0.02962  -0.02954  -1.11758
   D39       -1.07817   0.00032   0.00000   0.00286   0.00358  -1.07459
   D40        1.04215  -0.00385   0.00000  -0.01516  -0.01524   1.02691
   D41        3.03285  -0.00778   0.00000  -0.02739  -0.02740   3.00545
   D42       -3.04381   0.01004   0.00000   0.03103   0.03103  -3.01277
   D43       -0.92349   0.00587   0.00000   0.01302   0.01221  -0.91128
   D44        1.06721   0.00195   0.00000   0.00079   0.00005   1.06726
   D45        3.09172  -0.00944   0.00000  -0.03324  -0.03335   3.05837
   D46       -1.07109  -0.01579   0.00000  -0.04582  -0.04574  -1.11683
   D47        0.94831  -0.00543   0.00000  -0.02017  -0.02019   0.92812
   D48        0.98001  -0.00022   0.00000  -0.00654  -0.00645   0.97357
   D49        3.10039  -0.00658   0.00000  -0.01911  -0.01883   3.08156
   D50       -1.16340   0.00379   0.00000   0.00654   0.00672  -1.15668
   D51       -1.03302   0.00503   0.00000   0.00871   0.00846  -1.02457
   D52        1.08735  -0.00133   0.00000  -0.00386  -0.00393   1.08342
   D53        3.10675   0.00904   0.00000   0.02179   0.02162   3.12837
   D54        0.06884   0.00319   0.00000   0.00802   0.00795   0.07680
   D55        2.17405   0.00295   0.00000   0.00740   0.00731   2.18136
   D56       -2.04731   0.00422   0.00000   0.01088   0.01082  -2.03649
   D57       -2.05128  -0.00326   0.00000  -0.00584  -0.00562  -2.05690
   D58        0.05393  -0.00350   0.00000  -0.00647  -0.00627   0.04766
   D59        2.11576  -0.00222   0.00000  -0.00298  -0.00276   2.11300
   D60        2.20886   0.00024   0.00000  -0.00011  -0.00025   2.20861
   D61       -1.96912  -0.00000   0.00000  -0.00074  -0.00089  -1.97002
   D62        0.09270   0.00127   0.00000   0.00274   0.00261   0.09532
         Item               Value     Threshold  Converged?
 Maximum Force            0.080298     0.000450     NO 
 RMS     Force            0.018873     0.000300     NO 
 Maximum Displacement     0.941557     0.001800     NO 
 RMS     Displacement     0.251676     0.001200     NO 
 Predicted change in Energy=-5.622063D-02
 GradGradGradGradGradGradGradGradGradGradGradGradGradGradGradGradGradGrad

                          Input orientation:                          
 ---------------------------------------------------------------------
 Center     Atomic      Atomic             Coordinates (Angstroms)
 Number     Number       Type             X           Y           Z
 ---------------------------------------------------------------------
      1          6           0       -1.282819    0.038750   -0.629291
      2          8           0       -2.216031   -0.308670   -1.315697
      3          6           0        0.092493   -0.633285   -0.656506
      4          6           0        0.701137   -0.507191   -2.059776
      5          6           0        2.148774   -1.003014   -2.306170
      6          6           0        2.628975   -2.473127   -2.165516
      7          6           0        1.996188   -3.699340   -2.875198
      8          6           0        2.007042   -3.762807   -4.405186
      9          6           0        1.446126   -5.097172   -4.943592
     10          9           0        0.970319   -5.908732   -3.986720
     11          9           0        0.439760   -4.864403   -5.809065
     12          9           0        2.398969   -5.774042   -5.613167
     13          9           0        1.267869   -2.757832   -4.927734
     14          9           0        3.270995   -3.587786   -4.859359
     15          9           0        2.690437   -4.777356   -2.421235
     16          9           0        0.728536   -3.858227   -2.430324
     17          9           0        3.945813   -2.457835   -2.507829
     18          9           0        2.624978   -2.765025   -0.837145
     19          9           0        2.483422   -0.590444   -3.557597
     20          9           0        2.955814   -0.278760   -1.480200
     21          9           0       -0.123278   -1.076815   -2.964741
     22          9           0        0.708592    0.824038   -2.352740
     23          9           0        0.913295   -0.032215    0.255019
     24          9           0       -0.030991   -1.921929   -0.271895
     25          8           0       -1.391442    1.047378    0.260435
     26          1           0       -0.569921    1.173347    0.772069
 ---------------------------------------------------------------------
                    Distance matrix (angstroms):
                    1          2          3          4          5
     1  C    0.000000
     2  O    1.209438   0.000000
     3  C    1.530965   2.422642   0.000000
     4  C    2.506077   3.017107   1.534768   0.000000
     5  C    3.958917   4.529313   2.662026   1.549904   0.000000
     6  C    4.896085   5.374119   3.477912   2.755476   1.552936
     7  C    5.456125   5.627742   4.236431   3.540040   2.759937
     8  C    6.287480   6.269797   5.245189   4.219641   3.470218
     9  C    7.241411   7.035821   6.335434   5.471684   4.920553
    10  F    7.191766   6.974804   6.300099   5.741273   5.317807
    11  F    7.337455   6.928080   6.676213   5.754197   5.486468
    12  F    8.496065   8.344865   7.504379   6.576392   5.810467
    13  F    5.727433   5.584154   4.913105   3.689411   3.275359
    14  F    7.196003   7.308735   6.041186   4.892024   3.802525
    15  F    6.495591   6.727912   5.199703   4.724646   3.814747
    16  F    4.740854   4.744705   3.735135   3.371572   3.191353
    17  F    6.091012   6.633884   4.648059   3.812307   2.320888
    18  F    4.814066   5.449593   3.315181   3.208396   2.342966
    19  F    4.812010   5.214440   3.759615   2.329579   1.359511
    20  F    4.334844   5.174548   3.000461   2.339158   1.363116
    21  F    2.836080   2.772907   2.360344   1.350220   2.366723
    22  F    2.748212   3.303317   2.319607   1.363104   2.326889
    23  F    2.368535   3.512301   1.365972   2.372528   3.004754
    24  F    2.353522   2.909730   1.350473   2.394580   3.119945
    25  O    1.349349   2.236740   2.422286   3.489835   4.829565
    26  H    1.938903   3.043816   2.396568   3.529751   4.647946
                    6          7          8          9         10
     6  C    0.000000
     7  C    1.551666   0.000000
     8  C    2.658232   1.531341   0.000000
     9  C    4.000307   2.556317   1.544356   0.000000
    10  F    4.227447   2.677555   2.419690   1.341874   0.000000
    11  F    4.877122   3.519576   2.375029   1.347590   2.166347
    12  F    4.778623   3.458770   2.378632   1.346994   2.168988
    13  F    3.092494   2.372718   1.352556   2.346175   3.301850
    14  F    2.985204   2.361032   1.354431   2.369702   3.382514
    15  F    2.319189   1.360214   2.330751   2.830703   2.586419
    16  F    2.366494   1.352811   2.354519   2.892479   2.585613
    17  F    1.360688   2.340370   3.010274   4.375783   4.790550
    18  F    1.360070   2.328516   3.756106   4.867393   4.747695
    19  F    2.345969   3.219984   3.318016   4.827790   5.545972
    20  F    2.322009   3.816710   4.646966   6.123017   6.474675
    21  F    3.188000   3.373097   3.718560   4.747857   5.058439
    22  F    3.820239   4.731999   5.190150   6.505167   6.933151
    23  F    3.841952   4.941530   6.068863   7.277586   7.247693
    24  F    3.311350   3.747777   4.962510   5.838561   5.540500
    25  O    5.868811   6.621145   7.513693   8.537516   8.485500
    26  H    5.670901   6.605343   7.603310   8.720816   8.670309
                   11         12         13         14         15
    11  F    0.000000
    12  F    2.168944   0.000000
    13  F    2.429023   3.293437   0.000000
    14  F    3.247705   2.471512   2.169335   0.000000
    15  F    4.068233   3.356600   3.519192   2.774270   0.000000
    16  F    3.537184   4.073227   2.781871   3.526676   2.166549
    17  F    5.383506   4.799279   3.621785   2.694784   2.638871
    18  F    5.822591   5.649394   4.309840   4.156017   2.561855
    19  F    5.245225   5.576933   2.837678   3.361385   4.343317
    20  F    6.789531   6.898523   4.569513   4.740011   4.603622
    21  F    4.770012   5.953135   2.935038   4.627703   4.680426
    22  F    6.661593   7.551319   4.446704   5.684473   5.942055
    23  F    7.768358   8.343345   5.866484   6.660157   5.730351
    24  F    6.288085   7.019449   4.905365   5.892624   4.492137
    25  O    8.668408   9.767199   6.961944   8.332788   7.601356
    26  H    8.988059   9.892005   7.163756   8.314686   7.499199
                   16         17         18         19         20
    16  F    0.000000
    17  F    3.509697   0.000000
    18  F    2.707361   2.151780   0.000000
    19  F    3.876696   2.593790   3.485642   0.000000
    20  F    4.321584   2.604705   2.589302   2.153110   0.000000
    21  F    2.957607   4.321282   3.863887   2.717153   3.510208
    22  F    4.682950   4.612412   4.341767   2.569526   2.650943
    23  F    4.677988   4.765828   3.404545   4.160884   2.691403
    24  F    2.997490   4.593643   2.843323   4.346373   3.616768
    25  O    5.983264   6.959604   5.645416   5.681057   4.866938
    26  H    6.103937   6.658458   5.320500   5.583894   4.428560
                   21         22         23         24         25
    21  F    0.000000
    22  F    2.163284   0.000000
    23  F    3.540131   2.752359   0.000000
    24  F    2.823855   3.523809   2.177230   0.000000
    25  O    4.064751   3.359867   2.545066   3.309227   0.000000
    26  H    4.384800   3.394266   1.980063   3.310746   0.975978
                   26
    26  H    0.000000
 Symmetry turned off by external request.
 Stoichiometry    C8HF15O2
 Framework group  C1[X(C8HF15O2)]
 Deg. of freedom    72
 Full point group                 C1      NOp   1
 Rotational constants (GHZ):           0.4229125           0.1503495           0.1393191
 Standard basis: 6-31G(d) (6D, 7F)
   377 basis functions,   704 primitive gaussians,   377 cartesian basis functions
   100 alpha electrons      100 beta electrons
       nuclear repulsion energy      2979.7060105235 Hartrees.
 NAtoms=   26 NActive=   26 NUniq=   26 SFac= 1.00D+00 NAtFMM=   60 NAOKFM=F Big=F
 Integral buffers will be    131072 words long.
 Raffenetti 2 integral format.
 Two-electron integral symmetry is turned off.
 Nuclear repulsion after empirical dispersion term =     2979.6844794602 Hartrees.
 One-electron integrals computed using PRISM.
 NBasis=   377 RedAO= T EigKep=  8.51D-04  NBF=   377
 NBsUse=   377 1.00D-06 EigRej= -1.00D+00 NBFU=   377
 Initial guess from the checkpoint file:  "/home/neukomm/stress_test_aimnet/Gau-1993770.chk"
 B after Tr=    -0.012963   -0.025136   -0.014666
         Rot=    0.999998    0.000060    0.000270   -0.001739 Ang=   0.20 deg.
 ExpMin= 1.61D-01 ExpMax= 7.00D+03 ExpMxC= 1.05D+03 IAcc=3 IRadAn=         5 AccDes= 0.00D+00
 Harris functional with IExCor= 4639 and IRadAn=       5 diagonalized for initial guess.
 HarFok:  IExCor= 4639 AccDes= 0.00D+00 IRadAn=         5 IDoV= 1 UseB2=F ITyADJ=14
 ICtDFT=  3500011 ScaDFX=  1.000000  1.000000  1.000000  1.000000
 FoFCou: FMM=F IPFlag=           0 FMFlag=      100000 FMFlg1=           0
         NFxFlg=           0 DoJE=T BraDBF=F KetDBF=T FulRan=T
         wScrn=  0.000000 ICntrl=       500 IOpCl=  0 I1Cent=   200000004 NGrid=           0
         NMat0=    1 NMatS0=      1 NMatT0=    0 NMatD0=    1 NMtDS0=    0 NMtDT0=    0
 Symmetry not used in FoFCou.
 Requested convergence on RMS density matrix=1.00D-08 within 128 cycles.
 Requested convergence on MAX density matrix=1.00D-06.
 Requested convergence on             energy=1.00D-06.
 No special actions if energy rises.
 Integral accuracy reduced to 1.0D-05 until final iterations.
 Initial convergence to 1.0D-05 achieved.  Increase integral accuracy.
 SCF Done:  E(RwB97XD) =  -1952.93354102     A.U. after   14 cycles
            NFock= 14  Conv=0.88D-08     -V/T= 2.0069
 Calling FoFJK, ICntrl=      2127 FMM=F ISym2X=0 I1Cent= 0 IOpClX= 0 NMat=1 NMatS=1 NMatT=0.
 -------------------------------------------------------------------
 Center     Atomic                   Forces (Hartrees/Bohr)
 Number     Number              X              Y              Z
 -------------------------------------------------------------------
      1        6          -0.035096539    0.013749639    0.005477341
      2        8           0.025343999    0.003414992    0.012329445
      3        6           0.004711894   -0.009966914    0.009735778
      4        6          -0.007206724    0.003249508   -0.019533082
      5        6           0.022289060    0.022850678   -0.011896660
      6        6           0.024878898   -0.005470303    0.020932859
      7        6          -0.008568342   -0.012856903    0.017825724
      8        6           0.009741567    0.021574600   -0.013603093
      9        6          -0.012387163   -0.033309162   -0.024495151
     10        9           0.004400597    0.008806617   -0.005234416
     11        9           0.010865447    0.001248279    0.010756296
     12        9          -0.006508756    0.009756155    0.009548707
     13        9           0.000382163   -0.003341367    0.011042976
     14        9          -0.008195227   -0.005816310    0.007234538
     15        9           0.002923209    0.010794748   -0.006187478
     16        9           0.001554743    0.011679297   -0.004737740
     17        9          -0.011566859    0.002884854   -0.006709224
     18        9          -0.012473174    0.002308255   -0.006510139
     19        9          -0.009649909   -0.010263357    0.002028749
     20        9          -0.009158914   -0.010186418    0.001926848
     21        9           0.008018141   -0.007598963    0.007715660
     22        9           0.004282168   -0.007011763    0.008453351
     23        9           0.000101454    0.000302552   -0.006056602
     24        9           0.000727955    0.003822072   -0.008998445
     25        8           0.004865222   -0.007953089   -0.004736866
     26        1          -0.004274910   -0.002667697   -0.006309378
 -------------------------------------------------------------------
 Cartesian Forces:  Max     0.035096539 RMS     0.011843788

 GradGradGradGradGradGradGradGradGradGradGradGradGradGradGradGradGradGrad
 Berny optimization.
 Using GEDIIS/GDIIS optimizer.
 FormGI is forming the generalized inverse of G from B-inverse, IUseBI=4.
 Internal  Forces:  Max     0.027535073 RMS     0.007191294
 Search for a local minimum.
 Step number   2 out of a maximum of  143
 All quantities printed in internal units (Hartrees-Bohrs-Radians)
 Mixed Optimization -- RFO/linear search
 Update second derivatives using D2CorX and points    1    2
 DE= -1.98D-02 DEPred=-5.62D-02 R= 3.52D-01
 Trust test= 3.52D-01 RLast= 3.36D-01 DXMaxT set to 3.00D-01
 ITU=  0  0
 Use linear search instead of GDIIS.
     Eigenvalues ---    0.00393   0.00422   0.00442   0.00474   0.00508
     Eigenvalues ---    0.00541   0.00656   0.00920   0.02205   0.03696
     Eigenvalues ---    0.03755   0.04516   0.04785   0.05510   0.06643
     Eigenvalues ---    0.06805   0.06953   0.07025   0.07044   0.07260
     Eigenvalues ---    0.07909   0.08043   0.08669   0.13049   0.13900
     Eigenvalues ---    0.14689   0.14763   0.15980   0.16328   0.16380
     Eigenvalues ---    0.19032   0.19580   0.20268   0.20349   0.21220
     Eigenvalues ---    0.21245   0.23947   0.24995   0.25000   0.25000
     Eigenvalues ---    0.25000   0.25000   0.25000   0.25000   0.25000
     Eigenvalues ---    0.25000   0.29086   0.29380   0.29838   0.30073
     Eigenvalues ---    0.30307   0.30579   0.31367   0.49067   0.50703
     Eigenvalues ---    0.50827   0.50955   0.51037   0.51167   0.51275
     Eigenvalues ---    0.51370   0.52004   0.52407   0.52568   0.52870
     Eigenvalues ---    0.53011   0.53128   0.53279   0.53578   0.54960
     Eigenvalues ---    0.77478   0.91808
 RFO step:  Lambda=-2.05738041D-02 EMin= 3.92582203D-03
 Quartic linear search produced a step of -0.24601.
 Iteration  1 RMS(Cart)=  0.10050401 RMS(Int)=  0.00339616
 Iteration  2 RMS(Cart)=  0.00494911 RMS(Int)=  0.00033648
 Iteration  3 RMS(Cart)=  0.00001038 RMS(Int)=  0.00033641
 Iteration  4 RMS(Cart)=  0.00000000 RMS(Int)=  0.00033641
 Variable       Old X    -DE/DX   Delta X   Delta X   Delta X     New X
                                 (Linear)    (Quad)   (Total)
    R1        2.28551  -0.02754   0.00689  -0.04508  -0.03819   2.24732
    R2        2.89310   0.01122  -0.00532   0.04138   0.03606   2.92917
    R3        2.54990  -0.01527   0.00549  -0.03857  -0.03308   2.51682
    R4        2.90029   0.00270  -0.00811   0.02963   0.02152   2.92181
    R5        2.58131  -0.00385   0.00178  -0.01112  -0.00934   2.57197
    R6        2.55202  -0.00628   0.00394  -0.02116  -0.01723   2.53480
    R7        2.92889  -0.00510  -0.01290   0.02513   0.01223   2.94113
    R8        2.55155  -0.00686   0.00431  -0.02316  -0.01885   2.53270
    R9        2.57589  -0.00864   0.00371  -0.02414  -0.02042   2.55547
   R10        2.93462  -0.00846  -0.01302   0.01737   0.00435   2.93897
   R11        2.56910  -0.00736   0.00404  -0.02324  -0.01920   2.54990
   R12        2.57592  -0.00967   0.00397  -0.02644  -0.02247   2.55345
   R13        2.93222  -0.00536  -0.01192   0.02145   0.00953   2.94175
   R14        2.57133  -0.00947   0.00386  -0.02570  -0.02184   2.54949
   R15        2.57016  -0.00682   0.00410  -0.02271  -0.01860   2.55156
   R16        2.89382   0.00478  -0.01059   0.04151   0.03092   2.92474
   R17        2.57043  -0.00913   0.00351  -0.02405  -0.02054   2.54990
   R18        2.55644  -0.00439   0.00327  -0.01646  -0.01319   2.54326
   R19        2.91841   0.01627  -0.00750   0.06022   0.05272   2.97114
   R20        2.55596  -0.00696   0.00452  -0.02403  -0.01952   2.53644
   R21        2.55950  -0.01083   0.00385  -0.02729  -0.02344   2.53607
   R22        2.53577  -0.01062   0.00372  -0.02596  -0.02225   2.51353
   R23        2.54658  -0.01481   0.00456  -0.03469  -0.03013   2.51644
   R24        2.54545  -0.01425   0.00448  -0.03364  -0.02916   2.51629
   R25        1.84433  -0.00725   0.00309  -0.02015  -0.01706   1.82728
    A1        2.16154  -0.00928   0.00530  -0.04030  -0.03501   2.12652
    A2        2.12566   0.00649  -0.00203   0.02366   0.02162   2.14728
    A3        1.99562   0.00281  -0.00332   0.01689   0.01357   2.00919
    A4        1.91393   0.01249  -0.00273   0.04361   0.04110   1.95503
    A5        1.91217  -0.00171   0.00076   0.00294   0.00399   1.91616
    A6        1.90886  -0.00121   0.00708  -0.01528  -0.00781   1.90105
    A7        1.91313  -0.00642   0.00309  -0.03068  -0.02792   1.88521
    A8        1.95525  -0.00921  -0.00423  -0.02586  -0.03023   1.92502
    A9        1.85957   0.00579  -0.00385   0.02463   0.02032   1.87989
   A10        2.08228  -0.00656  -0.02138   0.02049  -0.00133   2.08095
   A11        1.91348   0.00230   0.00773  -0.03092  -0.02338   1.89009
   A12        1.85346   0.00034   0.00872  -0.00875  -0.00011   1.85335
   A13        1.90581  -0.00200  -0.00105  -0.02708  -0.02861   1.87720
   A14        1.84746   0.00210   0.00965  -0.00867   0.00081   1.84827
   A15        1.84554   0.00539  -0.00162   0.06497   0.06383   1.90937
   A16        2.18617  -0.02560  -0.03112  -0.01117  -0.04331   2.14286
   A17        1.85372   0.00653   0.01043  -0.02217  -0.01264   1.84108
   A18        1.86156   0.00760   0.00772   0.00253   0.00960   1.87117
   A19        1.86977   0.00617   0.00513  -0.01144  -0.00740   1.86238
   A20        1.83903   0.00565   0.01311  -0.01849  -0.00564   1.83339
   A21        1.82430   0.00405  -0.00177   0.08248   0.08114   1.90544
   A22        2.19024  -0.02541  -0.03124  -0.01040  -0.04266   2.14757
   A23        1.83986   0.00570   0.01265  -0.01730  -0.00485   1.83501
   A24        1.86578   0.00620   0.00502  -0.01135  -0.00757   1.85821
   A25        1.86344   0.00774   0.00780   0.00295   0.01023   1.87367
   A26        1.85033   0.00602   0.01101  -0.02522  -0.01516   1.83517
   A27        1.82448   0.00418  -0.00176   0.08339   0.08210   1.90658
   A28        2.07925  -0.00878  -0.01977   0.00949  -0.01089   2.06836
   A29        1.83953   0.00141   0.01113  -0.01430  -0.00318   1.83635
   A30        1.90133  -0.00119   0.00054  -0.02977  -0.02991   1.87142
   A31        1.87233   0.00248   0.00692   0.00356   0.01032   1.88265
   A32        1.90745   0.00227   0.00538  -0.02672  -0.02203   1.88543
   A33        1.84984   0.00552  -0.00252   0.06890   0.06679   1.91663
   A34        1.96228   0.01388  -0.00683   0.05599   0.04945   2.01172
   A35        1.92979  -0.01086  -0.00336  -0.03520  -0.03886   1.89093
   A36        1.91377  -0.00496   0.00263  -0.02637  -0.02383   1.88994
   A37        1.88474   0.00085   0.00783  -0.00803   0.00038   1.88512
   A38        1.91101  -0.00541   0.00475  -0.02135  -0.01625   1.89476
   A39        1.85921   0.00617  -0.00482   0.03409   0.02891   1.88812
   A40        1.98531  -0.00375   0.00122  -0.01509  -0.01403   1.97128
   A41        1.92399  -0.00435   0.00341  -0.02041  -0.01711   1.90688
   A42        1.92896  -0.00611   0.00415  -0.02824  -0.02426   1.90470
   A43        1.87301   0.00428  -0.00247   0.01825   0.01567   1.88868
   A44        1.87694   0.00475  -0.00251   0.01809   0.01537   1.89231
   A45        1.87111   0.00624  -0.00456   0.03234   0.02767   1.89877
   A46        1.95452  -0.00616   0.00533  -0.03780  -0.03247   1.92205
    D1        1.06826  -0.00096  -0.00106   0.00325   0.00215   1.07041
    D2       -3.11449  -0.00217   0.00150  -0.00558  -0.00390  -3.11839
    D3       -1.08223   0.00314   0.00140   0.01702   0.01837  -1.06386
    D4       -2.10212  -0.00018  -0.00284   0.01345   0.01051  -2.09161
    D5       -0.00168  -0.00138  -0.00028   0.00462   0.00445   0.00277
    D6        2.03058   0.00393  -0.00039   0.02722   0.02673   2.05731
    D7        3.08414   0.00128  -0.00176   0.02069   0.01903   3.10317
    D8       -0.02933   0.00080  -0.00019   0.01189   0.01160  -0.01773
    D9        3.04852   0.00159   0.00804   0.03079   0.03873   3.08724
   D10       -1.01967  -0.00475  -0.00411  -0.02037  -0.02426  -1.04393
   D11        0.96654   0.00279   0.00276   0.03599   0.03861   1.00515
   D12        0.94866  -0.00008   0.00690   0.01916   0.02622   0.97488
   D13       -3.11953  -0.00642  -0.00525  -0.03200  -0.03677   3.12689
   D14       -1.13332   0.00112   0.00162   0.02435   0.02610  -1.10722
[...]
 Alpha  occ. eigenvalues --  -24.89149 -24.89138 -24.89057 -24.89019 -24.88977
 Alpha  occ. eigenvalues --  -19.35992 -19.29857 -10.58556 -10.53440 -10.53401
 Alpha  occ. eigenvalues --  -10.53335 -10.53311 -10.52969 -10.52902 -10.47625
 Alpha  occ. eigenvalues --   -1.45762  -1.44389  -1.43150  -1.42197  -1.41674
 Alpha  occ. eigenvalues --   -1.41060  -1.40175  -1.36904  -1.36690  -1.36179
 Alpha  occ. eigenvalues --   -1.36042  -1.35816  -1.35477  -1.35408  -1.35177
 Alpha  occ. eigenvalues --   -1.24879  -1.16643  -0.95818  -0.93426  -0.90788
 Alpha  occ. eigenvalues --   -0.87319  -0.83171  -0.80168  -0.77644  -0.75724
 Alpha  occ. eigenvalues --   -0.74583  -0.74207  -0.73877  -0.72748  -0.72349
 Alpha  occ. eigenvalues --   -0.72040  -0.71355  -0.71182  -0.70350  -0.69986
 Alpha  occ. eigenvalues --   -0.69229  -0.68195  -0.67486  -0.67282  -0.66656
 Alpha  occ. eigenvalues --   -0.60686  -0.60302  -0.60028  -0.59583  -0.59219
 Alpha  occ. eigenvalues --   -0.58711  -0.58494  -0.58298  -0.57923  -0.57400
 Alpha  occ. eigenvalues --   -0.57066  -0.56610  -0.56241  -0.56075  -0.55962
 Alpha  occ. eigenvalues --   -0.55592  -0.55420  -0.55073  -0.54506  -0.54236
 Alpha  occ. eigenvalues --   -0.53971  -0.53829  -0.53367  -0.53150  -0.53030
 Alpha  occ. eigenvalues --   -0.52872  -0.52223  -0.52099  -0.51292  -0.50285
 Alpha  occ. eigenvalues --   -0.48247  -0.46040  -0.44116  -0.43735  -0.39209
 Alpha virt. eigenvalues --    0.03319   0.08657   0.09044   0.11953   0.13693
 Alpha virt. eigenvalues --    0.14938   0.16547   0.17584   0.21511   0.22570
 Alpha virt. eigenvalues --    0.24245   0.26145   0.27081   0.27512   0.28311
 Alpha virt. eigenvalues --    0.29062   0.29792   0.30037   0.32035   0.32881
 Alpha virt. eigenvalues --    0.33151   0.35594   0.36851   0.38555   0.40360
 Alpha virt. eigenvalues --    0.45061   0.48544   0.51276   0.52604   0.54385
 Alpha virt. eigenvalues --    0.55114   0.56190   0.58067   0.58522   0.60266
 Alpha virt. eigenvalues --    0.60956   0.61441   0.63031   0.64149   0.65665
 Alpha virt. eigenvalues --    0.66262   0.68338   0.71403   0.72046   0.73283
 Alpha virt. eigenvalues --    0.73584   0.74416   0.76210   0.78681   0.81296
 Alpha virt. eigenvalues --    0.84286   0.86438   0.92081   0.92121   0.94084
 Alpha virt. eigenvalues --    0.95418   0.98040   1.00142   1.02058   1.02949
 Alpha virt. eigenvalues --    1.04076   1.06770   1.08465   1.10716   1.11543
 Alpha virt. eigenvalues --    1.11790   1.12327   1.13745   1.14331   1.15759
 Alpha virt. eigenvalues --    1.15858   1.17242   1.17929   1.19363   1.20486
 Alpha virt. eigenvalues --    1.21914   1.22340   1.24426   1.25580   1.26743
 Alpha virt. eigenvalues --    1.27803   1.29027   1.30243   1.31891   1.33005
 Alpha virt. eigenvalues --    1.33137   1.34212   1.36050   1.36430   1.36908
 Alpha virt. eigenvalues --    1.37308   1.38384   1.38938   1.39481   1.40738
 Alpha virt. eigenvalues --    1.40990   1.41682   1.42153   1.42487   1.43449
 Alpha virt. eigenvalues --    1.43788   1.44031   1.44811   1.45551   1.46136
 Alpha virt. eigenvalues --    1.46633   1.48053   1.48444   1.49413   1.50149
 Alpha virt. eigenvalues --    1.50769   1.51576   1.52130   1.52915   1.54271
 Alpha virt. eigenvalues --    1.55647   1.56303   1.57708   1.59680   1.59912
 Alpha virt. eigenvalues --    1.60556   1.62802   1.63490   1.64471   1.64804
 Alpha virt. eigenvalues --    1.67005   1.67888   1.69698   1.69815   1.72460
 Alpha virt. eigenvalues --    1.73297   1.73672   1.75629   1.76050   1.76263
 Alpha virt. eigenvalues --    1.77167   1.78386   1.78869   1.80522   1.81250
 Alpha virt. eigenvalues --    1.81687   1.82263   1.82613   1.84565   1.85514
 Alpha virt. eigenvalues --    1.85822   1.86890   1.87500   1.87673   1.88014
 Alpha virt. eigenvalues --    1.88848   1.89387   1.90282   1.90462   1.92263
 Alpha virt. eigenvalues --    1.95211   1.95591   1.96426   1.96706   1.98835
 Alpha virt. eigenvalues --    2.00749   2.01661   2.02279   2.03633   2.04186
 Alpha virt. eigenvalues --    2.04348   2.04469   2.05302   2.05421   2.06137
 Alpha virt. eigenvalues --    2.06931   2.07656   2.08180   2.08911   2.10425
 Alpha virt. eigenvalues --    2.12507   2.12618   2.13520   2.14092   2.16823
 Alpha virt. eigenvalues --    2.17527   2.18752   2.19848   2.21178   2.22708
 Alpha virt. eigenvalues --    2.24892   2.25249   2.26834   2.28170   2.29929
 Alpha virt. eigenvalues --    2.31024   2.31217   2.34889   2.35356   2.37935
 Alpha virt. eigenvalues --    2.38397   2.41048   2.41792   2.43274   2.44297
 Alpha virt. eigenvalues --    2.45401   2.47373   2.48249   2.49377   2.50430
 Alpha virt. eigenvalues --    2.51491   2.52618   2.53221   2.54931   2.56922
 Alpha virt. eigenvalues --    2.58735   2.61725   2.64406   2.68240   2.69143
 Alpha virt. eigenvalues --    2.72022   2.72935   2.75399   2.76730   2.77802
 Alpha virt. eigenvalues --    2.80605   2.82273   2.83562   2.85419   2.86653
 Alpha virt. eigenvalues --    2.87694   2.91189   2.92325   2.92990   2.93951
 Alpha virt. eigenvalues --    2.97878   2.98377   2.99403   3.00396   3.01495
 Alpha virt. eigenvalues --    3.07584   3.09816   3.10899   3.13524   3.14613
 Alpha virt. eigenvalues --    3.15618   3.15666   3.17402   3.18770   3.20010
 Alpha virt. eigenvalues --    3.22520   3.26176   3.26644   3.28065   3.30383
 Alpha virt. eigenvalues --    3.32727   3.37916   3.95197   4.12709   4.26688
 Alpha virt. eigenvalues --    4.31081   4.39185   4.43858   4.49459   4.51543
 Alpha virt. eigenvalues --    4.61753   4.65484   4.78392   4.83417   4.86088
 Alpha virt. eigenvalues --    5.03207   5.17777   5.27111   5.40184   5.47180
 Alpha virt. eigenvalues --    5.54519   5.69337   5.82259   6.13481   6.13875
 Alpha virt. eigenvalues --    6.50170   6.55399
          Condensed to atoms (all electrons):
               1          2          3          4          5          6
     1  C    4.429497   0.565072   0.265457  -0.046081   0.002952  -0.000125
     2  O    0.565072   7.976715  -0.071280   0.008960   0.000069  -0.000001
     3  C    0.265457  -0.071280   4.837841   0.191978  -0.051836   0.000678
     4  C   -0.046081   0.008960   0.191978   4.785987   0.226289  -0.056532
     5  C    0.002952   0.000069  -0.051836   0.226289   4.750904   0.191914
     6  C   -0.000125  -0.000001   0.000678  -0.056532   0.191914   4.741129
     7  C   -0.000000   0.000001   0.000034  -0.000022  -0.054406   0.225655
     8  C    0.000000  -0.000000   0.000057   0.000108   0.000099  -0.045861
     9  C    0.000000  -0.000000  -0.000000  -0.000003  -0.000101   0.002306
    10  F    0.000000  -0.000000  -0.000000   0.000001  -0.000002   0.000137
    11  F   -0.000000   0.000000   0.000000  -0.000000   0.000000  -0.000017
    12  F   -0.000000   0.000000   0.000000  -0.000000   0.000001  -0.000042
    13  F   -0.000000   0.000000   0.000004  -0.001209   0.006115  -0.003665
    14  F    0.000000  -0.000000  -0.000000   0.000014  -0.002521   0.007680
    15  F   -0.000000   0.000000   0.000000  -0.000000   0.001837  -0.013495
    16  F    0.000004  -0.000000  -0.001361   0.006484  -0.000825  -0.023295
    17  F    0.000000  -0.000000   0.000013   0.001922  -0.014880   0.234775
    18  F    0.000110  -0.000000   0.012115  -0.001661  -0.027985   0.232762
    19  F   -0.000026   0.000000   0.001757  -0.021933   0.234165  -0.027376
    20  F   -0.000079   0.000000   0.001385  -0.031353   0.231679  -0.014838
    21  F   -0.000855   0.000005  -0.028615   0.237660  -0.024168  -0.000946
    22  F    0.017033  -0.001413  -0.039033   0.219363  -0.013469   0.001784
    23  F   -0.026139   0.000980   0.206147  -0.029646   0.005490  -0.002141
    24  F   -0.023379  -0.000407   0.241326  -0.026616  -0.002602   0.005349
    25  O    0.266928  -0.066953  -0.074715  -0.000771  -0.000062  -0.000000
    26  H   -0.023772   0.003393  -0.001528   0.000870  -0.000047   0.000004
               7          8          9         10         11         12
     1  C   -0.000000   0.000000   0.000000   0.000000  -0.000000  -0.000000
     2  O    0.000001  -0.000000  -0.000000  -0.000000   0.000000   0.000000
     3  C    0.000034   0.000057  -0.000000  -0.000000   0.000000   0.000000
     4  C   -0.000022   0.000108  -0.000003   0.000001  -0.000000  -0.000000
     5  C   -0.054406   0.000099  -0.000101  -0.000002   0.000000   0.000001
     6  C    0.225655  -0.045861   0.002306   0.000137  -0.000017  -0.000042
     7  C    4.827656   0.152398  -0.044629   0.014585   0.001806  -0.000462
     8  C    0.152398   4.845339   0.276803  -0.044046  -0.027474  -0.034629
     9  C   -0.044629   0.276803   4.109201   0.279861   0.299317   0.284981
    10  F    0.014585  -0.044046   0.279861   9.073022  -0.037022  -0.035908
    11  F    0.001806  -0.027474   0.299317  -0.037022   9.054948  -0.037960
    12  F   -0.000462  -0.034629   0.284981  -0.035908  -0.037960   9.069636
    13  F   -0.024092   0.219818  -0.018191   0.000099  -0.000036   0.000345
    14  F   -0.030267   0.228344  -0.017986   0.000354  -0.000328   0.000360
    15  F    0.223938  -0.034846   0.012240  -0.001279   0.000003   0.000066
    16  F    0.229244  -0.027358  -0.001483   0.000117  -0.000001   0.000004
    17  F   -0.031973   0.001717  -0.000071   0.000000   0.000000   0.000000
    18  F   -0.021917   0.001637  -0.000020  -0.000000   0.000000   0.000000
    19  F   -0.002012   0.012013   0.000101  -0.000000  -0.000000  -0.000000
    20  F    0.001924   0.000011   0.000000  -0.000000  -0.000000  -0.000000
    21  F    0.005992  -0.001353   0.000004  -0.000000  -0.000000  -0.000000
    22  F    0.000002  -0.000000  -0.000000  -0.000000  -0.000000  -0.000000
    23  F    0.000010  -0.000000   0.000000  -0.000000   0.000000  -0.000000
    24  F   -0.001063   0.000006  -0.000000   0.000000  -0.000000   0.000000
    25  O    0.000000   0.000000  -0.000000   0.000000  -0.000000   0.000000
    26  H   -0.000000   0.000000  -0.000000   0.000000   0.000000  -0.000000
              13         14         15         16         17         18
     1  C   -0.000000   0.000000  -0.000000   0.000004   0.000000   0.000110
     2  O    0.000000  -0.000000   0.000000  -0.000000  -0.000000  -0.000000
     3  C    0.000004  -0.000000   0.000000  -0.001361   0.000013   0.012115
     4  C   -0.001209   0.000014  -0.000000   0.006484   0.001922  -0.001661
     5  C    0.006115  -0.002521   0.001837  -0.000825  -0.014880  -0.027985
     6  C   -0.003665   0.007680  -0.013495  -0.023295   0.234775   0.232762
     7  C   -0.024092  -0.030267   0.223938   0.229244  -0.031973  -0.021917
     8  C    0.219818   0.228344  -0.034846  -0.027358   0.001717   0.001637
     9  C   -0.018191  -0.017986   0.012240  -0.001483  -0.000071  -0.000020
    10  F    0.000099   0.000354  -0.001279   0.000117   0.000000  -0.000000
    11  F   -0.000036  -0.000328   0.000003  -0.000001   0.000000   0.000000
    12  F    0.000345   0.000360   0.000066   0.000004   0.000000   0.000000
    13  F    9.119102  -0.032055   0.000378   0.000617   0.000004  -0.000000
    14  F   -0.032055   9.115233   0.000268   0.000344   0.000127   0.000002
    15  F    0.000378   0.000268   9.118034  -0.032771  -0.000070  -0.000723
    16  F    0.000617   0.000344  -0.032771   9.111782   0.000362  -0.000079
    17  F    0.000004   0.000127  -0.000070   0.000362   9.110181  -0.033119
    18  F   -0.000000   0.000002  -0.000723  -0.000079  -0.033119   9.112028
    19  F   -0.001000  -0.000181   0.000001  -0.000014  -0.000068   0.000381
    20  F    0.000000   0.000000  -0.000001  -0.000000  -0.000889  -0.000082
    21  F    0.001756   0.000000   0.000000  -0.000369  -0.000000  -0.000011
    22  F    0.000000  -0.000000   0.000000   0.000000  -0.000001   0.000002
    23  F   -0.000000  -0.000000  -0.000000   0.000000   0.000000  -0.000238
    24  F   -0.000000  -0.000000   0.000000   0.001696   0.000000  -0.000902
    25  O    0.000000   0.000000  -0.000000  -0.000000  -0.000000  -0.000000
    26  H   -0.000000   0.000000  -0.000000  -0.000000   0.000000   0.000001
              19         20         21         22         23         24
     1  C   -0.000026  -0.000079  -0.000855   0.017033  -0.026139  -0.023379
     2  O    0.000000   0.000000   0.000005  -0.001413   0.000980  -0.000407
     3  C    0.001757   0.001385  -0.028615  -0.039033   0.206147   0.241326
     4  C   -0.021933  -0.031353   0.237660   0.219363  -0.029646  -0.026616
     5  C    0.234165   0.231679  -0.024168  -0.013469   0.005490  -0.002602
     6  C   -0.027376  -0.014838  -0.000946   0.001784  -0.002141   0.005349
     7  C   -0.002012   0.001924   0.005992   0.000002   0.000010  -0.001063
     8  C    0.012013   0.000011  -0.001353  -0.000000  -0.000000   0.000006
     9  C    0.000101   0.000000   0.000004  -0.000000   0.000000  -0.000000
    10  F   -0.000000  -0.000000  -0.000000  -0.000000  -0.000000   0.000000
    11  F   -0.000000  -0.000000  -0.000000  -0.000000   0.000000  -0.000000
    12  F   -0.000000  -0.000000  -0.000000  -0.000000  -0.000000   0.000000
    13  F   -0.001000   0.000000   0.001756   0.000000  -0.000000  -0.000000
    14  F   -0.000181   0.000000   0.000000  -0.000000  -0.000000  -0.000000
    15  F    0.000001  -0.000001   0.000000   0.000000  -0.000000   0.000000
    16  F   -0.000014  -0.000000  -0.000369   0.000000   0.000000   0.001696
    17  F   -0.000068  -0.000889  -0.000000  -0.000001   0.000000   0.000000
    18  F    0.000381  -0.000082  -0.000011   0.000002  -0.000238  -0.000902
    19  F    9.105887  -0.033169  -0.000034  -0.000681   0.000002  -0.000001
    20  F   -0.033169   9.117343   0.000367  -0.000016   0.000363   0.000000
    21  F   -0.000034   0.000367   9.093044  -0.032166   0.000342   0.000690
    22  F   -0.000681  -0.000016  -0.032166   9.131911   0.000461   0.000389
    23  F    0.000002   0.000363   0.000342   0.000461   9.157759  -0.032446
    24  F   -0.000001   0.000000   0.000690   0.000389  -0.032446   9.093067
    25  O    0.000000   0.000000   0.000017  -0.000481  -0.005502   0.000660
    26  H    0.000000   0.000006  -0.000000   0.000204   0.022939   0.000387
              25         26
     1  C    0.266928  -0.023772
     2  O   -0.066953   0.003393
     3  C   -0.074715  -0.001528
     4  C   -0.000771   0.000870
     5  C   -0.000062  -0.000047
     6  C   -0.000000   0.000004
     7  C    0.000000  -0.000000
     8  C    0.000000   0.000000
     9  C   -0.000000  -0.000000
    10  F    0.000000   0.000000
    11  F   -0.000000   0.000000
    12  F    0.000000  -0.000000
    13  F    0.000000  -0.000000
    14  F    0.000000   0.000000
    15  F   -0.000000  -0.000000
    16  F   -0.000000  -0.000000
    17  F   -0.000000   0.000000
    18  F   -0.000000   0.000001
    19  F    0.000000   0.000000
    20  F    0.000000   0.000006
    21  F    0.000017  -0.000000
    22  F   -0.000481   0.000204
    23  F   -0.005502   0.022939
    24  F    0.000660   0.000387
    25  O    8.214657   0.237760
    26  H    0.237760   0.306115
 Mulliken charges:
               1
     1  C    0.573402
     2  O   -0.415141
     3  C    0.509576
     4  C    0.536192
     5  C    0.541390
     6  C    0.544164
     7  C    0.527596
     8  C    0.477218
     9  C    0.817670
    10  F   -0.249918
    11  F   -0.253237
    12  F   -0.246394
    13  F   -0.267991
    14  F   -0.269388
    15  F   -0.273580
    16  F   -0.263099
    17  F   -0.268030
    18  F   -0.272300
    19  F   -0.267814
    20  F   -0.272654
    21  F   -0.251361
    22  F   -0.283890
    23  F   -0.298380
    24  F   -0.256157
    25  O   -0.571540
    26  H    0.453667
 Sum of Mulliken charges =  -0.00000
 Mulliken charges with hydrogens summed into heavy atoms:
               1
     1  C    0.573402
     2  O   -0.415141
     3  C    0.509576
     4  C    0.536192
     5  C    0.541390
     6  C    0.544164
     7  C    0.527596
     8  C    0.477218
     9  C    0.817670
    10  F   -0.249918
    11  F   -0.253237
    12  F   -0.246394
    13  F   -0.267991
    14  F   -0.269388
    15  F   -0.273580
    16  F   -0.263099
    17  F   -0.268030
    18  F   -0.272300
    19  F   -0.267814
    20  F   -0.272654
    21  F   -0.251361
    22  F   -0.283890
    23  F   -0.298380
    24  F   -0.256157
    25  O   -0.117873
 Electronic spatial extent (au):  <R**2>=          16856.7174
 Charge=              0.0000 electrons
 Dipole moment (field-independent basis, Debye):
    X=              2.3080    Y=              0.5431    Z=              1.3261  Tot=              2.7167
 Quadrupole moment (field-independent basis, Debye-Ang):
   XX=           -138.1597   YY=           -129.6630   ZZ=           -129.8704
   XY=              1.2212   XZ=             -1.7765   YZ=              1.1808
 Traceless Quadrupole moment (field-independent basis, Debye-Ang):
   XX=             -5.5953   YY=              2.9014   ZZ=              2.6939
   XY=              1.2212   XZ=             -1.7765   YZ=              1.1808
 Octapole moment (field-independent basis, Debye-Ang**2):
  XXX=           -465.3346  YYY=            862.5706  ZZZ=           1001.0177  XYY=           -156.6820
  XXY=            288.9710  XXZ=            341.0966  XZZ=           -156.2098  YZZ=            284.3991
  YYZ=            329.2918  XYZ=              3.1208
 Hexadecapole moment (field-independent basis, Debye-Ang**3):
 XXXX=          -2926.2209 YYYY=          -7024.5032 ZZZZ=          -7616.8942 XXXY=           1589.5467
 XXXZ=           1656.1283 YYYX=           1592.7849 YYYZ=          -3188.9418 ZZZX=           1658.8912
 ZZZY=          -3199.6931 XXYY=          -1663.4906 XXZZ=          -1757.7410 YYZZ=          -2411.0428
 XXYZ=          -1080.3133 YYXZ=            554.1030 ZZXY=            522.5007
 N-N= 3.020452576089D+03 E-N=-1.066948385784D+04  KE= 1.939891953759D+03
 Unable to Open any file for archive entry.
 1\1\GINC-GPG-WOODWARD\FOpt\RwB97XD\6-31G(d)\C8H1F15O2\NEUKOMM\25-Jun-2
 024\0\\# wB97XD/6-31G(d) Opt(NoMicro) NoSymm\\PFOA\\0,1\C,-1.190962250
 5,0.0833454968,-0.459000225\O,-2.2094299815,-0.2224818954,-1.003527511
 2\C,0.103805012,-0.7502570872,-0.6732868525\C,0.625864173,-0.585781966
 2,-2.1216042279\C,2.0941984796,-1.0003933226,-2.4323959507\C,2.5717444
 497,-2.4429489235,-2.1171880777\C,1.8955450911,-3.6584866092,-2.818109
 4376\C,1.9019398745,-3.6818497903,-4.3702148049\C,1.6160323049,-5.0825
 236054,-4.9767573477\F,0.5426062015,-5.6265628393,-4.4056797725\F,1.38
 84784858,-4.9447198594,-6.2803226422\F,2.6588164187,-5.8888674262,-4.8
 066592857\F,0.9509383941,-2.8448656258,-4.8152816523\F,3.1000809328,-3
 .2775404452,-4.8261368433\F,2.5692791724,-4.7411732729,-2.3795067328\F
 ,0.623679544,-3.7414288294,-2.3966870449\F,3.8827453441,-2.478521013,-
 2.4090520161\F,2.4242563328,-2.6410268024,-0.791642763\F,2.2859659027,
 -0.7759548283,-3.7462068999\F,2.9036132611,-0.1799578042,-1.7378112966
 \F,-0.1946602755,-1.2432286394,-2.948938982\F,0.562340943,0.7379865619
 ,-2.400059498\F,1.0686010147,-0.3222572874,0.1922462656\F,-0.160799420
 3,-2.0366086333,-0.4202444136\O,-1.057998918,1.1255526158,0.3569275618
 \H,-0.1516304866,1.1680618317,0.6979804507\\Version=ES64L-G16RevC.02\H
 F=-1952.952053\RMSD=7.321e-09\RMSF=1.581e-05\Dipole=0.9080493,0.213652
 7,0.5217269\Quadrupole=-4.1599758,2.1571094,2.0028664,0.9079581,-1.320
 7694,0.8779209\PG=C01 [X(C8H1F15O2)]\\@
 The archive entry for this job was punched.


 TO DETECT ERRORS, THE PROGRAMMER MUST HAVE A CONNIVING MIND,
 ONE THAT DELIGHTS IN UNCOVERING FLAWS WHERE BEAUTY AND
 PERFECTION WERE ONCE THOUGHT TO LIE.

             -- THE PSYCHOLOGY OF COMPUTER PROGRAMMING
                GERALD M. WEINBERG
 Job cpu time:       0 days  4 hours  5 minutes 59.1 seconds.
 Elapsed time:       0 days  0 hours  4 minutes 26.2 seconds.
 File lengths (MBytes):  RWF=     93 Int=      0 D2E=      0 Chk=     12 Scr=      1
 Normal termination of Gaussian 16 at Tue Jun 25 16:20:10 2024.
